 Entering Gaussian System, Link 0=g09
 Input=3_resp.gjf
 Output=3_resp.log
 Initial command:
 /home/shiyu/g09/l1.exe "/home/shiyu/g09/scratch/Gau-53120.inp" -scrdir="/home/shiyu/g09/scratch/"
 Default is to use a total of  33 processors:
                               33 via shared-memory
                                1 via Linda
 Entering Link 1 = /home/shiyu/g09/l1.exe PID=     53121.
  
 Copyright (c) 1988,1990,1992,1993,1995,1998,2003,2009,2015,
            Gaussian, Inc.  All Rights Reserved.
  
 This is part of the Gaussian(R) 09 program.  It is based on
 the Gaussian(R) 03 system (copyright 2003, Gaussian, Inc.),
 the Gaussian(R) 98 system (copyright 1998, Gaussian, Inc.),
 the Gaussian(R) 94 system (copyright 1995, Gaussian, Inc.),
 the Gaussian 92(TM) system (copyright 1992, Gaussian, Inc.),
 the Gaussian 90(TM) system (copyright 1990, Gaussian, Inc.),
 the Gaussian 88(TM) system (copyright 1988, Gaussian, Inc.),
 the Gaussian 86(TM) system (copyright 1986, Carnegie Mellon
 University), and the Gaussian 82(TM) system (copyright 1983,
 Carnegie Mellon University). Gaussian is a federally registered
 trademark of Gaussian, Inc.
  
 This software contains proprietary and confidential information,
 including trade secrets, belonging to Gaussian, Inc.
  
 This software is provided under written license and may be
 used, copied, transmitted, or stored only in accord with that
 written license.
  
 The following legend is applicable only to US Government
 contracts under FAR:
  
                    RESTRICTED RIGHTS LEGEND
  
 Use, reproduction and disclosure by the US Government is
 subject to restrictions as set forth in subparagraphs (a)
 and (c) of the Commercial Computer Software - Restricted
 Rights clause in FAR 52.227-19.
  
 Gaussian, Inc.
 340 Quinnipiac St., Bldg. 40, Wallingford CT 06492
  
  
 ---------------------------------------------------------------
 Warning -- This program may not be used in any manner that
 competes with the business of Gaussian, Inc. or will provide
 assistance to any competitor of Gaussian, Inc.  The licensee
 of this program is prohibited from giving any competitor of
 Gaussian, Inc. access to this program.  By using this program,
 the user acknowledges that Gaussian, Inc. is engaged in the
 business of creating and licensing software in the field of
 computational chemistry and represents and warrants to the
 licensee that it is not a competitor of Gaussian, Inc. and that
 it will not use this program in any manner prohibited above.
 ---------------------------------------------------------------
  

 Cite this work as:
 Gaussian 09, Revision E.01,
 M. J. Frisch, G. W. Trucks, H. B. Schlegel, G. E. Scuseria, 
 M. A. Robb, J. R. Cheeseman, G. Scalmani, V. Barone, B. Mennucci, 
 G. A. Petersson, H. Nakatsuji, M. Caricato, X. Li, H. P. Hratchian, 
 A. F. Izmaylov, J. Bloino, G. Zheng, J. L. Sonnenberg, M. Hada, 
 M. Ehara, K. Toyota, R. Fukuda, J. Hasegawa, M. Ishida, T. Nakajima, 
 Y. Honda, O. Kitao, H. Nakai, T. Vreven, J. A. Montgomery, Jr., 
 J. E. Peralta, F. Ogliaro, M. Bearpark, J. J. Heyd, E. Brothers, 
 K. N. Kudin, V. N. Staroverov, T. Keith, R. Kobayashi, J. Normand, 
 K. Raghavachari, A. Rendell, J. C. Burant, S. S. Iyengar, J. Tomasi, 
 M. Cossi, N. Rega, J. M. Millam, M. Klene, J. E. Knox, J. B. Cross, 
 V. Bakken, C. Adamo, J. Jaramillo, R. Gomperts, R. E. Stratmann, 
 O. Yazyev, A. J. Austin, R. Cammi, C. Pomelli, J. W. Ochterski, 
 R. L. Martin, K. Morokuma, V. G. Zakrzewski, G. A. Voth, 
 P. Salvador, J. J. Dannenberg, S. Dapprich, A. D. Daniels, 
 O. Farkas, J. B. Foresman, J. V. Ortiz, J. Cioslowski, 
 and D. J. Fox, Gaussian, Inc., Wallingford CT, 2013.
 
 ******************************************
 Gaussian 09:  ES64L-G09RevE.01 30-Nov-2015
                25-Oct-2022 
 ******************************************
 %nproc=10
 Will use up to   10 processors via shared memory.
 %chk=2_UNK
 %mem=1500MB
 ----------------------------------------------------------------------
 # B3LYP/6-311G(d,p) em=GD3BJ scrf(solvent=water) pop=MK IOp(6/33=2,6/4
 2=6) geom=allcheck guess=read
 ----------------------------------------------------------------------
 1/29=7,38=1/1;
 2/12=2,40=1/2;
 3/5=4,6=6,7=101,11=2,14=-4,16=1,25=1,30=1,70=2201,72=1,74=-5,116=-2,124=41/1,2,3;
 4/5=1/1;
 5/5=2,38=6,53=1/2;
 6/7=2,8=2,9=2,10=2,15=8,20=1,28=1,33=2,42=6/1,2;
 99/5=1,9=1/99;
 Structure from the checkpoint file:  "2_UNK.chk"
 ---------------------
 remark line goes here
 ---------------------
 Charge =  0 Multiplicity = 1
 Redundant internal coordinates found in file.
 C,0,6.3936564041,-3.3128792785,-4.8001287126
 C,0,5.8363057665,-2.8067841916,-3.6274165423
 C,0,6.6385988095,-2.1745528051,-2.6794689965
 C,0,8.0015265569,-2.0600589825,-2.9279217684
 C,0,8.5795312237,-2.5571615186,-4.0903347165
 C,0,7.762696543,-3.1865244919,-5.0277097314
 Cl,0,9.0281352351,-1.2601312802,-1.7325205893
 H,0,5.7644867638,-3.8031113879,-5.5327322933
 H,0,4.7728781454,-2.9009935162,-3.4430048321
 H,0,6.2144123563,-1.7786781817,-1.766228901
 H,0,9.6433820104,-2.4546247778,-4.2587544296
 H,0,8.2036901852,-3.5772995878,-5.936878487
 Recover connectivity data from disk.
                          Input orientation:                          
 ---------------------------------------------------------------------
 Center     Atomic      Atomic             Coordinates (Angstroms)
 Number     Number       Type             X           Y           Z
 ---------------------------------------------------------------------
      1          6           0        6.393656   -3.312879   -4.800129
      2          6           0        5.836306   -2.806784   -3.627417
      3          6           0        6.638599   -2.174553   -2.679469
      4          6           0        8.001527   -2.060059   -2.927922
      5          6           0        8.579531   -2.557162   -4.090335
      6          6           0        7.762697   -3.186524   -5.027710
      7         17           0        9.028135   -1.260131   -1.732521
      8          1           0        5.764487   -3.803111   -5.532732
      9          1           0        4.772878   -2.900994   -3.443005
     10          1           0        6.214412   -1.778678   -1.766229
     11          1           0        9.643382   -2.454625   -4.258754
     12          1           0        8.203690   -3.577300   -5.936878
 ---------------------------------------------------------------------
                    Distance matrix (angstroms):
                    1          2          3          4          5
     1  C    0.000000
     2  C    1.393566   0.000000
     3  C    2.419294   1.393555   0.000000
     4  C    2.767664   2.394801   1.390111   0.000000
     5  C    2.419290   2.793186   2.429846   1.390109   0.000000
     6  C    1.393567   2.411640   2.793191   2.394801   1.393552
     7  Cl   4.534807   4.021261   2.728143   1.767143   2.728153
     8  H    1.083000   2.151291   3.399616   3.850664   3.399614
     9  H    2.153685   1.083403   2.142806   3.375893   3.876579
    10  H    3.404475   2.159626   1.081970   2.149996   3.406067
    11  H    3.404468   3.875104   3.406069   2.149997   1.081969
    12  H    2.153681   3.395853   3.876587   3.375901   2.142816
                    6          7          8          9         10
     6  C    0.000000
     7  Cl   4.021268   0.000000
     8  H    2.151295   5.617807   0.000000
     9  H    3.395855   4.870872   2.482754   0.000000
    10  H    3.875109   2.861305   4.299687   2.479756   0.000000
    11  H    2.159617   2.861328   4.299682   4.958478   4.292717
    12  H    1.083406   4.870894   2.482748   4.295028   4.958486
                   11         12
    11  H    0.000000
    12  H    2.479760   0.000000
 Stoichiometry    C6H5Cl
 Framework group  C1[X(C6H5Cl)]
 Deg. of freedom    30
 Full point group                 C1      NOp   1
 Largest Abelian subgroup         C1      NOp   1
 Largest concise Abelian subgroup C1      NOp   1
                         Standard orientation:                         
 ---------------------------------------------------------------------
 Center     Atomic      Atomic             Coordinates (Angstroms)
 Number     Number       Type             X           Y           Z
 ---------------------------------------------------------------------
      1          6           0       -2.270934   -0.000006    0.000002
      2          6           0       -1.572340   -1.205822   -0.000000
      3          6           0       -0.178815   -1.214922   -0.000002
      4          6           0        0.496730    0.000006   -0.000002
      5          6           0       -0.178828    1.214924   -0.000002
      6          6           0       -1.572350    1.205817    0.000000
      7         17           0        2.263873    0.000002    0.000001
      8          1           0       -3.353935   -0.000013    0.000006
      9          1           0       -2.108031   -2.147521   -0.000000
     10          1           0        0.371724   -2.146353   -0.000001
     11          1           0        0.371697    2.146364   -0.000005
     12          1           0       -2.108063    2.147507    0.000003
 ---------------------------------------------------------------------
 Rotational constants (GHZ):      5.6846403      1.5597014      1.2238988
 Standard basis: 6-311G(d,p) (5D, 7F)
 There are   171 symmetry adapted cartesian basis functions of A   symmetry.
 There are   164 symmetry adapted basis functions of A   symmetry.
   164 basis functions,   281 primitive gaussians,   171 cartesian basis functions
    29 alpha electrons       29 beta electrons
       nuclear repulsion energy       314.8851919749 Hartrees.
 NAtoms=   12 NActive=   12 NUniq=   12 SFac= 1.00D+00 NAtFMM=   60 NAOKFM=F Big=F
 Integral buffers will be    131072 words long.
 Raffenetti 2 integral format.
 Two-electron integral symmetry is turned on.
 Nuclear repulsion after empirical dispersion term =      314.8625892275 Hartrees.
 ------------------------------------------------------------------------------
 Polarizable Continuum Model (PCM)
 =================================
 Model                : PCM (using non-symmetric T matrix).
 Atomic radii         : UFF (Universal Force Field).
 Polarization charges : Total charges.
 Charge compensation  : None.
 Solution method      : On-the-fly selection.
 Cavity type          : Scaled VdW (van der Waals Surface) (Alpha=1.100).
 Cavity algorithm     : GePol (No added spheres)
                        Default sphere list used, NSphG=   12.
                        Lebedev-Laikov grids with approx.  5.0 points / Ang**2.
                        Smoothing algorithm: York/Karplus (Gamma=1.0000).
                        Polarization charges: spherical gaussians, with
                                              point-specific exponents (IZeta= 3).
                        Self-potential: point-specific (ISelfS= 7).
                        Self-field    : sphere-specific E.n sum rule (ISelfD= 2).
 Solvent              : Water, Eps=  78.355300 Eps(inf)=   1.777849
 ------------------------------------------------------------------------------
 Spheres list:
 ISph  on   Nord     Re0    Alpha      Xe            Ye            Ze
    1   C      1    1.9255  1.100     -2.270934     -0.000006      0.000002
    2   C      2    1.9255  1.100     -1.572340     -1.205822     -0.000000
    3   C      3    1.9255  1.100     -0.178815     -1.214922     -0.000002
    4   C      4    1.9255  1.100      0.496730      0.000006     -0.000002
    5   C      5    1.9255  1.100     -0.178828      1.214924     -0.000002
    6   C      6    1.9255  1.100     -1.572350      1.205817      0.000000
    7  Cl      7    1.9735  1.100      2.263873      0.000002      0.000001
    8   H      8    1.4430  1.100     -3.353935     -0.000013      0.000006
    9   H      9    1.4430  1.100     -2.108031     -2.147521     -0.000000
   10   H     10    1.4430  1.100      0.371724     -2.146353     -0.000001
   11   H     11    1.4430  1.100      0.371697      2.146364     -0.000005
   12   H     12    1.4430  1.100     -2.108063      2.147507      0.000003
 ------------------------------------------------------------------------------
 One-electron integrals computed using PRISM.
 NBasis=   164 RedAO= T EigKep=  2.02D-04  NBF=   164
 NBsUse=   164 1.00D-06 EigRej= -1.00D+00 NBFU=   164
 Initial guess from the checkpoint file:  "2_UNK.chk"
 B after Tr=     0.000000    0.000000   -0.000000
         Rot=    1.000000    0.000000    0.000000   -0.000000 Ang=   0.00 deg.
 Keep R1 ints in memory in canonical form, NReq=96184985.
 Requested convergence on RMS density matrix=1.00D-08 within 128 cycles.
 Requested convergence on MAX density matrix=1.00D-06.
 Requested convergence on             energy=1.00D-06.
 No special actions if energy rises.
 Inv3:  Mode=1 IEnd=     3967500.
 Iteration    1 A*A^-1 deviation from unit magnitude is 6.00D-15 for   1141.
 Iteration    1 A*A^-1 deviation from orthogonality  is 1.55D-15 for    735    237.
 Iteration    1 A^-1*A deviation from unit magnitude is 6.44D-15 for   1141.
 Iteration    1 A^-1*A deviation from orthogonality  is 1.73D-12 for    560    502.
 Error on total polarization charges =  0.01388
 SCF Done:  E(RB3LYP) =  -691.956516107     A.U. after    1 cycles
            NFock=  1  Conv=0.53D-08     -V/T= 2.0031

 **********************************************************************

            Population analysis using the SCF density.

 **********************************************************************

 Orbital symmetries:
 BldTbl:  Degeneracy threshold= 1.00D-02
       Occupied  (A) (A) (A) (A) (A) (A) (A) (A) (A) (A) (A) (A)
                 (A) (A) (A) (A) (A) (A) (A) (A) (A) (A) (A) (A)
                 (A) (A) (A) (A) (A)
       Virtual   (A) (A) (A) (A) (A) (A) (A) (A) (A) (A) (A) (A)
                 (A) (A) (A) (A) (A) (A) (A) (A) (A) (A) (A) (A)
                 (A) (A) (A) (A) (A) (A) (A) (A) (A) (A) (A) (A)
                 (A) (A) (A) (A) (A) (A) (A) (A) (A) (A) (A) (A)
                 (A) (A) (A) (A) (A) (A) (A) (A) (A) (A) (A) (A)
                 (A) (A) (A) (A) (A) (A) (A) (A) (A) (A) (A) (A)
                 (A) (A) (A) (A) (A) (A) (A) (A) (A) (A) (A) (A)
                 (A) (A) (A) (A) (A) (A) (A) (A) (A) (A) (A) (A)
                 (A) (A) (A) (A) (A) (A) (A) (A) (A) (A) (A) (A)
                 (A) (A) (A) (A) (A) (A) (A) (A) (A) (A) (A) (A)
                 (A) (A) (A) (A) (A) (A) (A) (A) (A) (A) (A) (A)
                 (A) (A) (A)
 The electronic state is 1-A.
 Alpha  occ. eigenvalues -- -101.56199 -10.24397 -10.19136 -10.19134 -10.18843
 Alpha  occ. eigenvalues --  -10.18840 -10.18449  -9.47635  -7.24072  -7.23138
 Alpha  occ. eigenvalues --   -7.23102  -0.90028  -0.84530  -0.76643  -0.74328
 Alpha  occ. eigenvalues --   -0.62673  -0.60823  -0.53314  -0.47693  -0.47353
 Alpha  occ. eigenvalues --   -0.44059  -0.43892  -0.40622  -0.36954  -0.36830
 Alpha  occ. eigenvalues --   -0.34480  -0.32564  -0.27299  -0.25856
 Alpha virt. eigenvalues --   -0.02544  -0.02461   0.01171   0.06025   0.07931
 Alpha virt. eigenvalues --    0.09241   0.12070   0.12738   0.12984   0.22897
 Alpha virt. eigenvalues --    0.22984   0.25453   0.26390   0.27583   0.28508
 Alpha virt. eigenvalues --    0.31568   0.32114   0.35602   0.38162   0.39494
 Alpha virt. eigenvalues --    0.39813   0.42278   0.43108   0.43133   0.43753
 Alpha virt. eigenvalues --    0.45321   0.48477   0.50941   0.52182   0.54049
 Alpha virt. eigenvalues --    0.59408   0.59664   0.59673   0.59825   0.62385
 Alpha virt. eigenvalues --    0.66110   0.68356   0.72237   0.72528   0.74604
 Alpha virt. eigenvalues --    0.76645   0.79271   0.80438   0.83657   0.84835
 Alpha virt. eigenvalues --    0.85567   0.88231   0.92161   0.98153   0.99289
 Alpha virt. eigenvalues --    0.99634   1.00898   1.06569   1.07821   1.10248
 Alpha virt. eigenvalues --    1.12551   1.14788   1.21784   1.27845   1.31096
 Alpha virt. eigenvalues --    1.40918   1.43450   1.46783   1.49405   1.54039
 Alpha virt. eigenvalues --    1.54143   1.59026   1.60076   1.60166   1.64860
 Alpha virt. eigenvalues --    1.67795   1.72872   1.76521   1.77154   1.80966
 Alpha virt. eigenvalues --    1.88524   1.88627   1.90088   1.90197   1.90208
 Alpha virt. eigenvalues --    1.94597   1.97426   1.97526   1.98269   2.06949
 Alpha virt. eigenvalues --    2.12644   2.18355   2.22330   2.27897   2.27992
 Alpha virt. eigenvalues --    2.32986   2.35268   2.35727   2.45904   2.49312
 Alpha virt. eigenvalues --    2.54002   2.58630   2.60059   2.61209   2.61481
 Alpha virt. eigenvalues --    2.62974   2.64091   2.67674   2.69803   2.70150
 Alpha virt. eigenvalues --    2.78765   2.82131   2.82482   2.83682   2.89739
 Alpha virt. eigenvalues --    3.03183   3.07281   3.12991   3.30718   3.32370
 Alpha virt. eigenvalues --    3.45347   3.45611   3.60758   3.72595   3.95038
 Alpha virt. eigenvalues --    4.02642   4.09362   4.09508   4.81862   9.59047
 Alpha virt. eigenvalues --   23.44209  23.86692  23.93584  24.05520  24.08325
 Alpha virt. eigenvalues --   24.17504  25.41787  25.70620  26.24419 215.54462
          Condensed to atoms (all electrons):
               1          2          3          4          5          6
     1  C    4.890025   0.508107  -0.059107  -0.043480  -0.059108   0.508107
     2  C    0.508107   4.867042   0.512333  -0.048335  -0.033404  -0.057730
     3  C   -0.059107   0.512333   4.956124   0.401214  -0.066353  -0.033404
     4  C   -0.043480  -0.048335   0.401214   5.361479   0.401212  -0.048335
     5  C   -0.059108  -0.033404  -0.066353   0.401212   4.956122   0.512334
     6  C    0.508107  -0.057730  -0.033404  -0.048335   0.512334   4.867042
     7  Cl  -0.001297   0.008140  -0.125527   0.321291  -0.125525   0.008139
     8  H    0.420331  -0.040857   0.007545  -0.000660   0.007545  -0.040856
     9  H   -0.039629   0.419995  -0.042030   0.008334  -0.000389   0.006894
    10  H    0.007487  -0.033237   0.433143  -0.057166   0.005734  -0.000826
    11  H    0.007488  -0.000826   0.005734  -0.057165   0.433143  -0.033237
    12  H   -0.039630   0.006894  -0.000389   0.008334  -0.042029   0.419995
               7          8          9         10         11         12
     1  C   -0.001297   0.420331  -0.039629   0.007487   0.007488  -0.039630
     2  C    0.008140  -0.040857   0.419995  -0.033237  -0.000826   0.006894
     3  C   -0.125527   0.007545  -0.042030   0.433143   0.005734  -0.000389
     4  C    0.321291  -0.000660   0.008334  -0.057166  -0.057165   0.008334
     5  C   -0.125525   0.007545  -0.000389   0.005734   0.433143  -0.042029
     6  C    0.008139  -0.040856   0.006894  -0.000826  -0.033237   0.419995
     7  Cl  17.032848   0.000045  -0.000274  -0.010876  -0.010875  -0.000274
     8  H    0.000045   0.541042  -0.007077  -0.000239  -0.000240  -0.007077
     9  H   -0.000274  -0.007077   0.537799  -0.007552   0.000049  -0.000325
    10  H   -0.010876  -0.000239  -0.007552   0.529779  -0.000163   0.000049
    11  H   -0.010875  -0.000240   0.000049  -0.000163   0.529780  -0.007552
    12  H   -0.000274  -0.007077  -0.000325   0.000049  -0.007552   0.537799
 Mulliken charges:
               1
     1  C   -0.099294
     2  C   -0.108123
     3  C    0.010718
     4  C   -0.246724
     5  C    0.010719
     6  C   -0.108123
     7  Cl  -0.095815
     8  H    0.120499
     9  H    0.124205
    10  H    0.133866
    11  H    0.133865
    12  H    0.124206
 Sum of Mulliken charges =   0.00000
 Mulliken charges with hydrogens summed into heavy atoms:
               1
     1  C    0.021205
     2  C    0.016082
     3  C    0.144584
     4  C   -0.246724
     5  C    0.144584
     6  C    0.016083
     7  Cl  -0.095815
 DipInt: DoE/N= T F RetVal/Mat= T F Init=T NMatP=  1 IDeriv=0 Min/MaxMlt=  0  4
 Entering OneElI...
 OneElI was handed   196530694 working-precision words.
 Multipole integrals L=0 to 4 MinM= 0 MaxM= 0.
 Requested accuracy = 0.1000D-12
 ShPair: Thresh= 1.00D-13 NBox=     0 BxSize= 0.00D+00 RnKept= 1.06D+01
         NSMCal=                 1953 NSMKep=                1864
 PrsmSu:  NPrtUS=   1 ThrOK=F IAlg=1 NPAlg=1 LenDen=           0.
 Prism:   IPart=     0 DynPar=F LinDyn=F Incr=          18.
 PRISM was handed   196390439 working-precision words and  1864 shell-pairs
 IPart=  0 NShTot=        1864 NBatch=          60 AvBLen=        31.1
 PrSmSu:  NxtVal=             19.
 Electronic moments (au):
        -58.00000000         -1.00477859         -0.00000263          0.00000109
       -641.45260549       -222.23572143        -38.39294511         -0.00005427
         -0.00001248         -0.00000250       -183.82872156          0.00057904
          0.00002377        310.38292359         -0.00138653         -0.00158548
          7.65302085          0.00000281          0.00034981          0.00012916
     -12894.58006382      -2456.85084679       -159.18904421         -0.00214745
          0.00087673          0.00184119          0.00005428          0.00001783
         -0.00000975      -1575.99752497       -436.26811805       -177.75001181
         -0.00039815          0.00027812         -0.00001591
 Electronic spatial extent (au):  <R**2>=            902.0813
 DipInt: DoE/N= F T RetVal/Mat= T F Init=T NMatP=  1 IDeriv=0 Min/MaxMlt=  0  4
 Nuclear    moments (au):
         58.00000000          0.00000000          0.00000000         -0.00000000
        607.13183089        191.40125364          0.00000000         -0.00000000
          0.00000000         -0.00000000        166.23777947         -0.00064255
         -0.00000000       -314.61203037          0.00138912          0.00168809
         -0.00000000          0.00000000         -0.00035237         -0.00015310
      10787.43677299       1740.68638106          0.00000000          0.00053081
         -0.00121337         -0.00234586         -0.00010998         -0.00000000
         -0.00000000       1096.25895950          0.00000001          0.00000000
          0.00046624         -0.00034830         -0.00000000
 Total      moments (au):
         -0.00000000         -1.00477859         -0.00000263          0.00000109
        -34.32077460        -30.83446780        -38.39294511         -0.00005427
         -0.00001248         -0.00000250        -17.59094209         -0.00006351
          0.00002377         -4.22910678          0.00000258          0.00010260
          7.65302085          0.00000282         -0.00000256         -0.00002393
      -2107.14329083       -716.16446573       -159.18904421         -0.00161664
         -0.00033664         -0.00050466         -0.00005570          0.00001783
         -0.00000975       -479.73856547       -436.26811805       -177.75001181
          0.00006809         -0.00007018         -0.00001592
 Traceless Quadrup. (au):
          0.19528790          3.68159470         -3.87688261         -0.00005427
         -0.00001248         -0.00000250
 Charge=             -0.0000 electrons
 Dipole moment (field-independent basis, Debye):
    X=             -2.5539    Y=             -0.0000    Z=              0.0000  Tot=              2.5539
 Quadrupole moment (field-independent basis, Debye-Ang):
   XX=            -46.1626   YY=            -41.4734   ZZ=            -51.6398
   XY=             -0.0001   XZ=             -0.0000   YZ=             -0.0000
 Traceless Quadrupole moment (field-independent basis, Debye-Ang):
   XX=              0.2627   YY=              4.9519   ZZ=             -5.2145
   XY=             -0.0001   XZ=             -0.0000   YZ=             -0.0000
 Octapole moment (field-independent basis, Debye-Ang**2):
  XXX=            -12.5206  YYY=             -0.0000  ZZZ=              0.0000  XYY=             -3.0101
  XXY=              0.0000  XXZ=              0.0001  XZZ=              5.4471  YZZ=              0.0000
  YYZ=             -0.0000  XYZ=             -0.0000
 Hexadecapole moment (field-independent basis, Debye-Ang**3):
 XXXX=           -793.6512 YYYY=           -269.7419 ZZZZ=            -59.9582 XXXY=             -0.0006
 XXXZ=             -0.0001 YYYX=             -0.0002 YYYZ=             -0.0000 ZZZX=              0.0000
 ZZZY=             -0.0000 XXYY=           -180.6925 XXZZ=           -164.3195 YYZZ=            -66.9492
 XXYZ=              0.0000 YYXZ=             -0.0000 ZZXY=             -0.0000
 N-N= 3.148625892275D+02 E-N=-2.261223951071D+03  KE= 6.898400692804D+02
 Entering OneElI...
 OneElI was handed   196547281 working-precision words.
 Calculate electrostatic properties
    NBasis =   164  MinDer = 0  MaxDer = 0
    NGrid  =    12  NMatD  =   1
 Requested accuracy = 0.1000D-12
 ShPair: Thresh= 1.00D-13 NBox=     0 BxSize= 0.00D+00 RnKept= 1.06D+01
         NSMCal=                 1953 NSMKep=                1747
 PrsmSu:  NPrtUS=  10 ThrOK=T IAlg=1 NPAlg=1 LenDen=           0.
 Prism:   IPart=     0 DynPar=F LinDyn=F Incr=          20.
 PRISM was handed    19602545 working-precision words and  1747 shell-pairs
 PRISM was handed    19602545 working-precision words and  1747 shell-pairs
 PRISM was handed    19602545 working-precision words and  1747 shell-pairs
 PRISM was handed    19602545 working-precision words and  1747 shell-pairs
 PRISM was handed    19602545 working-precision words and  1747 shell-pairs
 PRISM was handed    19602545 working-precision words and  1747 shell-pairs
 PRISM was handed    19602545 working-precision words and  1747 shell-pairs
 PRISM was handed    19602545 working-precision words and  1747 shell-pairs
 PRISM was handed    19602545 working-precision words and  1747 shell-pairs
 PRISM was handed    19602545 working-precision words and  1747 shell-pairs
 IPart=  8 NShTot=        1884 NBatch=         157 AvBLen=        12.0
 IPart=  2 NShTot=        2232 NBatch=         186 AvBLen=        12.0
 IPart=  5 NShTot=        2064 NBatch=         172 AvBLen=        12.0
 IPart=  7 NShTot=        1920 NBatch=         160 AvBLen=        12.0
 IPart=  4 NShTot=        2160 NBatch=         180 AvBLen=        12.0
 IPart=  0 NShTot=        2424 NBatch=         202 AvBLen=        12.0
 IPart=  6 NShTot=        1956 NBatch=         163 AvBLen=        12.0
 IPart=  3 NShTot=        2208 NBatch=         184 AvBLen=        12.0
 IPart=  9 NShTot=        1836 NBatch=         153 AvBLen=        12.0
 IPart=  1 NShTot=        2280 NBatch=         190 AvBLen=        12.0
 PrSmSu:  NxtVal=            201.
 --------------------------------------------------------
       Center         ----      EFG at Nuclei      ----
                      3XX-RR        3YY-RR        3ZZ-RR
 --------------------------------------------------------
     1   Atom        0.144488      0.171871     -0.316358
     2   Atom        0.155372      0.170982     -0.326354
     3   Atom        0.166820      0.107343     -0.274162
     4   Atom       -0.371244      0.410791     -0.039547
     5   Atom        0.166817      0.107344     -0.274161
     6   Atom        0.155373      0.170980     -0.326353
     7   Atom       -3.452303      1.904381      1.547922
     8   Atom       -0.316351      0.147140      0.169211
     9   Atom        0.033999     -0.202283      0.168284
    10   Atom        0.027399     -0.197521      0.170123
    11   Atom        0.027405     -0.197528      0.170123
    12   Atom        0.033990     -0.202271      0.168281
 --------------------------------------------------------
                        XY            XZ            YZ
 --------------------------------------------------------
     1   Atom        0.000000     -0.000001      0.000000
     2   Atom       -0.017086     -0.000001      0.000000
     3   Atom       -0.020728     -0.000000      0.000000
     4   Atom       -0.000002     -0.000001     -0.000000
     5   Atom        0.020729     -0.000001     -0.000000
     6   Atom        0.017087     -0.000001     -0.000000
     7   Atom        0.000032     -0.000012      0.000000
     8   Atom       -0.000003      0.000002     -0.000000
     9   Atom       -0.198492     -0.000000     -0.000000
    10   Atom        0.202507     -0.000000      0.000001
    11   Atom       -0.202504      0.000001      0.000001
    12   Atom        0.198493      0.000001     -0.000001
 --------------------------------------------------------


 ---------------------------------------------------------------------------------
              Nuclear Quadrupole Coupling Constant in Principal Axis System
 ---------------------------------------------------------------------------------

       Atom             a.u.   MegaHertz   Gauss  10(-4) cm-1        Axes

              Baa    -3.4523   -66.232   -23.633   -22.093  1.0000 -0.0000  0.0000
     7 Cl(35) Bbb     1.5479    29.697    10.597     9.906 -0.0000 -0.0000  1.0000
              Bcc     1.9044    36.535    13.037    12.187  0.0000  1.0000  0.0000
 

 ---------------------------------------------------------------------------------

 No NMR shielding tensors so no spin-rotation constants.
 Leave Link  601 at Tue Oct 25 15:39:18 2022, MaxMem=   196608000 cpu:         1.5
 FitSet:  NAtFit=    12 NAtPot=    12 NAtFrz=     0 MDM=    16 TotChg=   0.00000
 Merz-Kollman atomic radii used.
 Atom Element Radius
    1     6    1.50
    2     6    1.50
    3     6    1.50
    4     6    1.50
    5     6    1.50
    6     6    1.50
    7    17    1.70
    8     1    1.20
    9     1    1.20
   10     1    1.20
   11     1    1.20
   12     1    1.20
 Generate VDW surfaces: Layer= 4 Dens= 6 Start= 1.400 Inc= 0.200

 **********************************************************************

            Electrostatic Properties Using The SCF Density

 **********************************************************************

       Atomic Center    1 is at  -2.270934 -0.000006  0.000002
       Atomic Center    2 is at  -1.572340 -1.205822 -0.000000
       Atomic Center    3 is at  -0.178815 -1.214922 -0.000002
       Atomic Center    4 is at   0.496730  0.000006 -0.000002
       Atomic Center    5 is at  -0.178828  1.214924 -0.000002
       Atomic Center    6 is at  -1.572350  1.205817  0.000000
       Atomic Center    7 is at   2.263873  0.000002  0.000001
       Atomic Center    8 is at  -3.353935 -0.000013  0.000006
       Atomic Center    9 is at  -2.108031 -2.147521 -0.000000
       Atomic Center   10 is at   0.371724 -2.146353 -0.000001
       Atomic Center   11 is at   0.371697  2.146364 -0.000005
       Atomic Center   12 is at  -2.108063  2.147507  0.000003
      ESP Fit Center   13 is at  -2.270934 -0.000006  2.100002
      ESP Fit Center   14 is at  -1.861245 -0.000006  2.059651
      ESP Fit Center   15 is at  -2.066089  0.354796  2.059651
      ESP Fit Center   16 is at  -2.475779  0.354796  2.059651
      ESP Fit Center   17 is at  -2.680624 -0.000006  2.059651
      ESP Fit Center   18 is at  -2.475779 -0.354808  2.059651
      ESP Fit Center   19 is at  -2.066089 -0.354808  2.059651
      ESP Fit Center   20 is at  -1.467299 -0.000006  1.940149
      ESP Fit Center   21 is at  -1.574966  0.401811  1.940149
      ESP Fit Center   22 is at  -2.270934  0.803629  1.940149
      ESP Fit Center   23 is at  -2.672752  0.695962  1.940149
      ESP Fit Center   24 is at  -2.966903  0.401811  1.940149
      ESP Fit Center   25 is at  -3.074569 -0.000006  1.940149
      ESP Fit Center   26 is at  -2.966903 -0.401824  1.940149
      ESP Fit Center   27 is at  -2.672752 -0.695975  1.940149
      ESP Fit Center   28 is at  -2.270934 -0.803641  1.940149
      ESP Fit Center   29 is at  -1.574966 -0.401824  1.940149
      ESP Fit Center   30 is at  -1.104237 -0.000006  1.746088
      ESP Fit Center   31 is at  -2.974026  0.931039  1.746088
      ESP Fit Center   32 is at  -3.262880  0.614181  1.746088
      ESP Fit Center   33 is at  -3.417766  0.214374  1.746088
      ESP Fit Center   34 is at  -3.417766 -0.214386  1.746088
      ESP Fit Center   35 is at  -3.262880 -0.614193  1.746088
      ESP Fit Center   36 is at  -2.974026 -0.931051  1.746088
      ESP Fit Center   37 is at  -3.243353  1.122225  1.484926
      ESP Fit Center   38 is at  -3.520132  0.802805  1.484926
      ESP Fit Center   39 is at  -3.520132 -0.802817  1.484926
      ESP Fit Center   40 is at  -3.243353 -1.122237  1.484926
      ESP Fit Center   41 is at  -3.243353  1.122225 -1.484922
      ESP Fit Center   42 is at  -3.520132  0.802805 -1.484922
      ESP Fit Center   43 is at  -3.520132 -0.802817 -1.484922
      ESP Fit Center   44 is at  -3.243353 -1.122237 -1.484922
      ESP Fit Center   45 is at  -1.104237 -0.000006 -1.746084
      ESP Fit Center   46 is at  -2.974026  0.931039 -1.746084
      ESP Fit Center   47 is at  -3.262880  0.614181 -1.746084
      ESP Fit Center   48 is at  -3.417766  0.214374 -1.746084
      ESP Fit Center   49 is at  -3.417766 -0.214386 -1.746084
      ESP Fit Center   50 is at  -3.262880 -0.614193 -1.746084
      ESP Fit Center   51 is at  -2.974026 -0.931051 -1.746084
      ESP Fit Center   52 is at  -1.467299 -0.000006 -1.940145
      ESP Fit Center   53 is at  -1.574966  0.401811 -1.940145
      ESP Fit Center   54 is at  -2.270934  0.803629 -1.940145
      ESP Fit Center   55 is at  -2.672752  0.695962 -1.940145
      ESP Fit Center   56 is at  -2.966903  0.401811 -1.940145
      ESP Fit Center   57 is at  -3.074569 -0.000006 -1.940145
      ESP Fit Center   58 is at  -2.966903 -0.401824 -1.940145
      ESP Fit Center   59 is at  -2.672752 -0.695975 -1.940145
      ESP Fit Center   60 is at  -2.270934 -0.803641 -1.940145
      ESP Fit Center   61 is at  -1.574966 -0.401824 -1.940145
      ESP Fit Center   62 is at  -1.861245 -0.000006 -2.059647
      ESP Fit Center   63 is at  -2.066089  0.354796 -2.059647
      ESP Fit Center   64 is at  -2.475779  0.354796 -2.059647
      ESP Fit Center   65 is at  -2.680624 -0.000006 -2.059647
      ESP Fit Center   66 is at  -2.475779 -0.354808 -2.059647
      ESP Fit Center   67 is at  -2.066089 -0.354808 -2.059647
      ESP Fit Center   68 is at  -2.270934 -0.000006 -2.099998
      ESP Fit Center   69 is at  -1.572340 -1.205822  2.100000
      ESP Fit Center   70 is at  -1.162651 -1.205822  2.059649
      ESP Fit Center   71 is at  -1.367495 -0.851021  2.059649
      ESP Fit Center   72 is at  -1.777185 -0.851021  2.059649
      ESP Fit Center   73 is at  -1.982030 -1.205822  2.059649
      ESP Fit Center   74 is at  -1.777185 -1.560624  2.059649
      ESP Fit Center   75 is at  -1.367495 -1.560624  2.059649
      ESP Fit Center   76 is at  -0.876372 -0.804005  1.940147
      ESP Fit Center   77 is at  -1.170523 -0.509854  1.940147
      ESP Fit Center   78 is at  -1.572340 -0.402187  1.940147
      ESP Fit Center   79 is at  -2.268309 -0.804005  1.940147
      ESP Fit Center   80 is at  -2.375976 -1.205822  1.940147
      ESP Fit Center   81 is at  -2.268309 -1.607640  1.940147
      ESP Fit Center   82 is at  -1.974158 -1.901791  1.940147
      ESP Fit Center   83 is at  -1.572340 -2.009457  1.940147
      ESP Fit Center   84 is at  -1.170523 -1.901791  1.940147
      ESP Fit Center   85 is at  -1.052298 -0.161437  1.746086
      ESP Fit Center   86 is at  -2.719173 -1.420202  1.746086
      ESP Fit Center   87 is at  -2.564287 -1.820009  1.746086
      ESP Fit Center   88 is at  -2.275433 -2.136867  1.746086
      ESP Fit Center   89 is at  -1.891622 -2.327982  1.746086
      ESP Fit Center   90 is at  -1.464691 -2.367543  1.746086
      ESP Fit Center   91 is at  -1.052298 -2.250207  1.746086
      ESP Fit Center   92 is at  -2.997115 -1.624174  1.484924
      ESP Fit Center   93 is at  -1.361014 -2.675632  1.484924
      ESP Fit Center   94 is at  -0.955480 -2.556557  1.484924
      ESP Fit Center   95 is at  -3.267688 -1.623688  1.166697
      ESP Fit Center   96 is at  -0.953170 -2.838441  1.166697
      ESP Fit Center   97 is at  -3.267688 -1.623688 -1.166698
      ESP Fit Center   98 is at  -0.953170 -2.838441 -1.166698
      ESP Fit Center   99 is at  -2.997115 -1.624174 -1.484924
      ESP Fit Center  100 is at  -1.361014 -2.675632 -1.484924
      ESP Fit Center  101 is at  -0.955480 -2.556557 -1.484924
      ESP Fit Center  102 is at  -1.052298 -0.161437 -1.746086
      ESP Fit Center  103 is at  -2.719173 -1.420202 -1.746086
      ESP Fit Center  104 is at  -2.564287 -1.820009 -1.746086
      ESP Fit Center  105 is at  -2.275433 -2.136867 -1.746086
      ESP Fit Center  106 is at  -1.891622 -2.327982 -1.746086
      ESP Fit Center  107 is at  -1.464691 -2.367543 -1.746086
      ESP Fit Center  108 is at  -1.052298 -2.250207 -1.746086
      ESP Fit Center  109 is at  -0.876372 -0.804005 -1.940147
      ESP Fit Center  110 is at  -1.170523 -0.509854 -1.940147
      ESP Fit Center  111 is at  -1.572340 -0.402187 -1.940147
      ESP Fit Center  112 is at  -2.268309 -0.804005 -1.940147
      ESP Fit Center  113 is at  -2.375976 -1.205822 -1.940147
      ESP Fit Center  114 is at  -2.268309 -1.607640 -1.940147
      ESP Fit Center  115 is at  -1.974158 -1.901791 -1.940147
      ESP Fit Center  116 is at  -1.572340 -2.009457 -1.940147
      ESP Fit Center  117 is at  -1.170523 -1.901791 -1.940147
      ESP Fit Center  118 is at  -1.162651 -1.205822 -2.059649
      ESP Fit Center  119 is at  -1.367495 -0.851021 -2.059649
      ESP Fit Center  120 is at  -1.777185 -0.851021 -2.059649
      ESP Fit Center  121 is at  -1.982030 -1.205822 -2.059649
      ESP Fit Center  122 is at  -1.777185 -1.560624 -2.059649
      ESP Fit Center  123 is at  -1.367495 -1.560624 -2.059649
      ESP Fit Center  124 is at  -1.572340 -1.205822 -2.100000
      ESP Fit Center  125 is at  -0.178815 -1.214922  2.099998
      ESP Fit Center  126 is at   0.230875 -1.214922  2.059647
      ESP Fit Center  127 is at   0.026030 -0.860120  2.059647
      ESP Fit Center  128 is at  -0.383660 -0.860120  2.059647
      ESP Fit Center  129 is at  -0.588505 -1.214922  2.059647
      ESP Fit Center  130 is at  -0.383660 -1.569723  2.059647
      ESP Fit Center  131 is at   0.026030 -1.569723  2.059647
      ESP Fit Center  132 is at   0.624820 -1.214922  1.940145
      ESP Fit Center  133 is at   0.517153 -0.813104  1.940145
      ESP Fit Center  134 is at  -0.580633 -0.518953  1.940145
      ESP Fit Center  135 is at  -0.874784 -1.616739  1.940145
      ESP Fit Center  136 is at  -0.580633 -1.910890  1.940145
      ESP Fit Center  137 is at  -0.178815 -2.018557  1.940145
      ESP Fit Center  138 is at   0.223002 -1.910890  1.940145
      ESP Fit Center  139 is at   0.517153 -1.616739  1.940145
      ESP Fit Center  140 is at   0.987882 -1.214922  1.746084
      ESP Fit Center  141 is at  -0.498097 -2.337081  1.746084
      ESP Fit Center  142 is at  -0.071166 -2.376642  1.746084
      ESP Fit Center  143 is at   0.341227 -2.259306  1.746084
      ESP Fit Center  144 is at   0.683385 -2.000921  1.746084
      ESP Fit Center  145 is at   0.909098 -1.636381  1.746084
      ESP Fit Center  146 is at  -0.795675 -2.565656  1.484922
      ESP Fit Center  147 is at  -0.390142 -2.684731  1.484922
      ESP Fit Center  148 is at   1.245959 -1.633273  1.484922
      ESP Fit Center  149 is at  -0.797986 -2.847541  1.166695
      ESP Fit Center  150 is at  -0.797986 -2.847541 -1.166700
      ESP Fit Center  151 is at  -0.795675 -2.565656 -1.484926
      ESP Fit Center  152 is at  -0.390142 -2.684731 -1.484926
      ESP Fit Center  153 is at   1.245959 -1.633273 -1.484926
      ESP Fit Center  154 is at   0.987882 -1.214922 -1.746088
      ESP Fit Center  155 is at  -0.498097 -2.337081 -1.746088
      ESP Fit Center  156 is at  -0.071166 -2.376642 -1.746088
      ESP Fit Center  157 is at   0.341227 -2.259306 -1.746088
      ESP Fit Center  158 is at   0.683385 -2.000921 -1.746088
      ESP Fit Center  159 is at   0.909098 -1.636381 -1.746088
      ESP Fit Center  160 is at   0.624820 -1.214922 -1.940149
      ESP Fit Center  161 is at   0.517153 -0.813104 -1.940149
      ESP Fit Center  162 is at  -0.580633 -0.518953 -1.940149
      ESP Fit Center  163 is at  -0.874784 -1.616739 -1.940149
      ESP Fit Center  164 is at  -0.580633 -1.910890 -1.940149
      ESP Fit Center  165 is at  -0.178815 -2.018557 -1.940149
      ESP Fit Center  166 is at   0.223002 -1.910890 -1.940149
      ESP Fit Center  167 is at   0.517153 -1.616739 -1.940149
      ESP Fit Center  168 is at   0.230875 -1.214922 -2.059651
      ESP Fit Center  169 is at   0.026030 -0.860120 -2.059651
      ESP Fit Center  170 is at  -0.383660 -0.860120 -2.059651
      ESP Fit Center  171 is at  -0.588505 -1.214922 -2.059651
      ESP Fit Center  172 is at  -0.383660 -1.569723 -2.059651
      ESP Fit Center  173 is at   0.026030 -1.569723 -2.059651
      ESP Fit Center  174 is at  -0.178815 -1.214922 -2.100002
      ESP Fit Center  175 is at   0.496730  0.000006  2.099998
      ESP Fit Center  176 is at   0.906419  0.000006  2.059647
      ESP Fit Center  177 is at   0.701575  0.354808  2.059647
      ESP Fit Center  178 is at   0.291885  0.354808  2.059647
      ESP Fit Center  179 is at   0.087040  0.000006  2.059647
      ESP Fit Center  180 is at   0.291885 -0.354796  2.059647
      ESP Fit Center  181 is at   0.701575 -0.354796  2.059647
      ESP Fit Center  182 is at   0.898547  0.695974  1.940145
      ESP Fit Center  183 is at  -0.199239  0.401823  1.940145
      ESP Fit Center  184 is at  -0.306905  0.000006  1.940145
      ESP Fit Center  185 is at  -0.199239 -0.401812  1.940145
      ESP Fit Center  186 is at   0.898547 -0.695963  1.940145
      ESP Fit Center  187 is at   1.016772  1.044391  1.746084
      ESP Fit Center  188 is at   1.016772 -1.044379  1.746084
      ESP Fit Center  189 is at   1.016772  1.044391 -1.746088
      ESP Fit Center  190 is at   1.016772 -1.044379 -1.746088
      ESP Fit Center  191 is at   0.898547  0.695974 -1.940149
      ESP Fit Center  192 is at  -0.199239  0.401823 -1.940149
      ESP Fit Center  193 is at  -0.306905  0.000006 -1.940149
      ESP Fit Center  194 is at  -0.199239 -0.401812 -1.940149
      ESP Fit Center  195 is at   0.898547 -0.695963 -1.940149
      ESP Fit Center  196 is at   0.906419  0.000006 -2.059651
      ESP Fit Center  197 is at   0.701575  0.354808 -2.059651
      ESP Fit Center  198 is at   0.291885  0.354808 -2.059651
      ESP Fit Center  199 is at   0.087040  0.000006 -2.059651
      ESP Fit Center  200 is at   0.291885 -0.354796 -2.059651
      ESP Fit Center  201 is at   0.701575 -0.354796 -2.059651
      ESP Fit Center  202 is at   0.496730  0.000006 -2.100002
      ESP Fit Center  203 is at  -0.178828  1.214924  2.099998
      ESP Fit Center  204 is at   0.230862  1.214924  2.059647
      ESP Fit Center  205 is at   0.026017  1.569726  2.059647
      ESP Fit Center  206 is at  -0.383672  1.569726  2.059647
      ESP Fit Center  207 is at  -0.588517  1.214924  2.059647
      ESP Fit Center  208 is at  -0.383672  0.860122  2.059647
      ESP Fit Center  209 is at   0.026017  0.860122  2.059647
      ESP Fit Center  210 is at   0.624808  1.214924  1.940145
      ESP Fit Center  211 is at   0.517141  1.616742  1.940145
      ESP Fit Center  212 is at   0.222990  1.910893  1.940145
      ESP Fit Center  213 is at  -0.178828  2.018559  1.940145
      ESP Fit Center  214 is at  -0.580645  1.910893  1.940145
      ESP Fit Center  215 is at  -0.874796  1.616742  1.940145
      ESP Fit Center  216 is at  -0.580645  0.518956  1.940145
      ESP Fit Center  217 is at   0.517141  0.813107  1.940145
      ESP Fit Center  218 is at   0.987870  1.214924  1.746084
      ESP Fit Center  219 is at   0.909085  1.636384  1.746084
      ESP Fit Center  220 is at   0.683372  2.000923  1.746084
      ESP Fit Center  221 is at   0.341214  2.259309  1.746084
      ESP Fit Center  222 is at  -0.071178  2.376645  1.746084
      ESP Fit Center  223 is at  -0.498109  2.337084  1.746084
      ESP Fit Center  224 is at   1.245947  1.633276  1.484922
      ESP Fit Center  225 is at  -0.390154  2.684734  1.484922
      ESP Fit Center  226 is at  -0.795687  2.565659  1.484922
      ESP Fit Center  227 is at  -0.797998  2.847543  1.166695
      ESP Fit Center  228 is at  -0.797998  2.847543 -1.166700
      ESP Fit Center  229 is at   1.245947  1.633276 -1.484927
      ESP Fit Center  230 is at  -0.390154  2.684734 -1.484927
      ESP Fit Center  231 is at  -0.795687  2.565659 -1.484927
      ESP Fit Center  232 is at   0.987870  1.214924 -1.746089
      ESP Fit Center  233 is at   0.909085  1.636384 -1.746089
      ESP Fit Center  234 is at   0.683372  2.000923 -1.746089
      ESP Fit Center  235 is at   0.341214  2.259309 -1.746089
      ESP Fit Center  236 is at  -0.071178  2.376645 -1.746089
      ESP Fit Center  237 is at  -0.498109  2.337084 -1.746089
      ESP Fit Center  238 is at   0.624808  1.214924 -1.940149
      ESP Fit Center  239 is at   0.517141  1.616742 -1.940149
      ESP Fit Center  240 is at   0.222990  1.910893 -1.940149
      ESP Fit Center  241 is at  -0.178828  2.018559 -1.940149
      ESP Fit Center  242 is at  -0.580645  1.910893 -1.940149
      ESP Fit Center  243 is at  -0.874796  1.616742 -1.940149
      ESP Fit Center  244 is at  -0.580645  0.518956 -1.940149
      ESP Fit Center  245 is at   0.517141  0.813107 -1.940149
      ESP Fit Center  246 is at   0.230862  1.214924 -2.059651
      ESP Fit Center  247 is at   0.026017  1.569726 -2.059651
      ESP Fit Center  248 is at  -0.383672  1.569726 -2.059651
      ESP Fit Center  249 is at  -0.588517  1.214924 -2.059651
      ESP Fit Center  250 is at  -0.383672  0.860122 -2.059651
      ESP Fit Center  251 is at   0.026017  0.860122 -2.059651
      ESP Fit Center  252 is at  -0.178828  1.214924 -2.100002
      ESP Fit Center  253 is at  -1.572350  1.205817  2.100000
      ESP Fit Center  254 is at  -1.162661  1.205817  2.059650
      ESP Fit Center  255 is at  -1.367505  1.560619  2.059650
      ESP Fit Center  256 is at  -1.777195  1.560619  2.059650
      ESP Fit Center  257 is at  -1.982040  1.205817  2.059650
      ESP Fit Center  258 is at  -1.777195  0.851016  2.059650
      ESP Fit Center  259 is at  -1.367505  0.851016  2.059650
      ESP Fit Center  260 is at  -1.170533  1.901786  1.940147
      ESP Fit Center  261 is at  -1.572350  2.009453  1.940147
      ESP Fit Center  262 is at  -1.974168  1.901786  1.940147
      ESP Fit Center  263 is at  -2.268319  1.607635  1.940147
      ESP Fit Center  264 is at  -2.375986  1.205817  1.940147
      ESP Fit Center  265 is at  -2.268319  0.804000  1.940147
      ESP Fit Center  266 is at  -1.572350  0.402182  1.940147
      ESP Fit Center  267 is at  -1.170533  0.509849  1.940147
      ESP Fit Center  268 is at  -0.876382  0.804000  1.940147
      ESP Fit Center  269 is at  -1.052308  2.250202  1.746087
      ESP Fit Center  270 is at  -1.464701  2.367538  1.746087
      ESP Fit Center  271 is at  -1.891632  2.327977  1.746087
      ESP Fit Center  272 is at  -2.275443  2.136862  1.746087
      ESP Fit Center  273 is at  -2.564297  1.820004  1.746087
      ESP Fit Center  274 is at  -2.719183  1.420197  1.746087
      ESP Fit Center  275 is at  -1.052308  0.161433  1.746087
      ESP Fit Center  276 is at  -0.955490  2.556552  1.484925
      ESP Fit Center  277 is at  -1.361024  2.675627  1.484925
      ESP Fit Center  278 is at  -2.997125  1.624169  1.484925
      ESP Fit Center  279 is at  -0.953180  2.838436  1.166698
      ESP Fit Center  280 is at  -3.267698  1.623683  1.166698
      ESP Fit Center  281 is at  -0.953180  2.838436 -1.166697
      ESP Fit Center  282 is at  -3.267698  1.623683 -1.166697
      ESP Fit Center  283 is at  -0.955490  2.556552 -1.484924
      ESP Fit Center  284 is at  -1.361024  2.675627 -1.484924
      ESP Fit Center  285 is at  -2.997125  1.624169 -1.484924
      ESP Fit Center  286 is at  -1.052308  2.250202 -1.746086
      ESP Fit Center  287 is at  -1.464701  2.367538 -1.746086
      ESP Fit Center  288 is at  -1.891632  2.327977 -1.746086
      ESP Fit Center  289 is at  -2.275443  2.136862 -1.746086
      ESP Fit Center  290 is at  -2.564297  1.820004 -1.746086
      ESP Fit Center  291 is at  -2.719183  1.420197 -1.746086
      ESP Fit Center  292 is at  -1.052308  0.161433 -1.746086
      ESP Fit Center  293 is at  -1.170533  1.901786 -1.940147
      ESP Fit Center  294 is at  -1.572350  2.009453 -1.940147
      ESP Fit Center  295 is at  -1.974168  1.901786 -1.940147
      ESP Fit Center  296 is at  -2.268319  1.607635 -1.940147
      ESP Fit Center  297 is at  -2.375986  1.205817 -1.940147
      ESP Fit Center  298 is at  -2.268319  0.804000 -1.940147
      ESP Fit Center  299 is at  -1.572350  0.402182 -1.940147
      ESP Fit Center  300 is at  -1.170533  0.509849 -1.940147
      ESP Fit Center  301 is at  -0.876382  0.804000 -1.940147
      ESP Fit Center  302 is at  -1.162661  1.205817 -2.059649
      ESP Fit Center  303 is at  -1.367505  1.560619 -2.059649
      ESP Fit Center  304 is at  -1.777195  1.560619 -2.059649
      ESP Fit Center  305 is at  -1.982040  1.205817 -2.059649
      ESP Fit Center  306 is at  -1.777195  0.851016 -2.059649
      ESP Fit Center  307 is at  -1.367505  0.851016 -2.059649
      ESP Fit Center  308 is at  -1.572350  1.205817 -2.100000
      ESP Fit Center  309 is at   2.263873  0.000002  2.380001
      ESP Fit Center  310 is at   2.677155  0.000002  2.343844
      ESP Fit Center  311 is at   2.470514  0.357915  2.343844
      ESP Fit Center  312 is at   2.057231  0.357915  2.343844
      ESP Fit Center  313 is at   1.850590  0.000002  2.343844
      ESP Fit Center  314 is at   2.057231 -0.357911  2.343844
      ESP Fit Center  315 is at   2.470514 -0.357911  2.343844
      ESP Fit Center  316 is at   3.077881  0.000002  2.236470
      ESP Fit Center  317 is at   2.968824  0.407006  2.236470
      ESP Fit Center  318 is at   2.670877  0.704953  2.236470
      ESP Fit Center  319 is at   2.263873  0.814010  2.236470
      ESP Fit Center  320 is at   1.856869  0.704953  2.236470
      ESP Fit Center  321 is at   1.558921  0.407006  2.236470
      ESP Fit Center  322 is at   1.449865  0.000002  2.236470
      ESP Fit Center  323 is at   1.558921 -0.407002  2.236470
      ESP Fit Center  324 is at   1.856869 -0.704950  2.236470
      ESP Fit Center  325 is at   2.263873 -0.814006  2.236470
      ESP Fit Center  326 is at   2.670877 -0.704950  2.236470
      ESP Fit Center  327 is at   2.968824 -0.407002  2.236470
      ESP Fit Center  328 is at   3.453873  0.000002  2.061142
      ESP Fit Center  329 is at   3.382107  0.407006  2.061142
      ESP Fit Center  330 is at   3.175466  0.764919  2.061142
      ESP Fit Center  331 is at   2.858873  1.030572  2.061142
      ESP Fit Center  332 is at   2.470514  1.171923  2.061142
      ESP Fit Center  333 is at   2.057231  1.171923  2.061142
      ESP Fit Center  334 is at   1.668873  1.030572  2.061142
      ESP Fit Center  335 is at   1.352280  0.764919  2.061142
      ESP Fit Center  336 is at   1.145638  0.407006  2.061142
      ESP Fit Center  337 is at   1.073873  0.000002  2.061142
      ESP Fit Center  338 is at   1.145638 -0.407002  2.061142
      ESP Fit Center  339 is at   1.352280 -0.764915  2.061142
      ESP Fit Center  340 is at   1.668873 -1.030568  2.061142
      ESP Fit Center  341 is at   2.057231 -1.171919  2.061142
      ESP Fit Center  342 is at   2.470514 -1.171919  2.061142
      ESP Fit Center  343 is at   2.858873 -1.030568  2.061142
      ESP Fit Center  344 is at   3.175466 -0.764915  2.061142
      ESP Fit Center  345 is at   3.382107 -0.407002  2.061142
      ESP Fit Center  346 is at   3.793707  0.000002  1.823187
      ESP Fit Center  347 is at   3.736977  0.412746  1.823187
      ESP Fit Center  348 is at   3.570993  0.794879  1.823187
      ESP Fit Center  349 is at   3.308066  1.118060  1.823187
      ESP Fit Center  350 is at   2.967696  1.358319  1.823187
      ESP Fit Center  351 is at   2.575127  1.497838  1.823187
      ESP Fit Center  352 is at   2.159473  1.526270  1.823187
      ESP Fit Center  353 is at   1.751562  1.441505  1.823187
      ESP Fit Center  354 is at   1.381647  1.249831  1.823187
      ESP Fit Center  355 is at   1.077163  0.965462  1.823187
      ESP Fit Center  356 is at   1.077163 -0.965458  1.823187
      ESP Fit Center  357 is at   1.381647 -1.249827  1.823187
      ESP Fit Center  358 is at   1.751562 -1.441501  1.823187
      ESP Fit Center  359 is at   2.159473 -1.526266  1.823187
      ESP Fit Center  360 is at   2.575127 -1.497835  1.823187
      ESP Fit Center  361 is at   2.967696 -1.358316  1.823187
      ESP Fit Center  362 is at   3.308066 -1.118056  1.823187
      ESP Fit Center  363 is at   3.570993 -0.794876  1.823187
      ESP Fit Center  364 is at   3.736977 -0.412743  1.823187
      ESP Fit Center  365 is at   4.087058  0.000002  1.529836
      ESP Fit Center  366 is at   4.037914  0.420457  1.529836
      ESP Fit Center  367 is at   3.893131  0.818246  1.529836
      ESP Fit Center  368 is at   3.660514  1.171923  1.529836
      ESP Fit Center  369 is at   3.352604  1.462421  1.529836
      ESP Fit Center  370 is at   2.986000  1.674080  1.529836
      ESP Fit Center  371 is at   2.580466  1.795489  1.529836
      ESP Fit Center  372 is at   2.157864  1.820103  1.529836
      ESP Fit Center  373 is at   1.740977  1.746595  1.529836
      ESP Fit Center  374 is at   1.352280  1.578927  1.529836
      ESP Fit Center  375 is at   1.352280 -1.578923  1.529836
      ESP Fit Center  376 is at   1.740977 -1.746591  1.529836
      ESP Fit Center  377 is at   2.157864 -1.820099  1.529836
      ESP Fit Center  378 is at   2.580466 -1.795486  1.529836
      ESP Fit Center  379 is at   2.986000 -1.674077  1.529836
      ESP Fit Center  380 is at   3.352604 -1.462418  1.529836
      ESP Fit Center  381 is at   3.660514 -1.171919  1.529836
      ESP Fit Center  382 is at   3.893131 -0.818242  1.529836
      ESP Fit Center  383 is at   4.037914 -0.420454  1.529836
      ESP Fit Center  384 is at   4.325013  0.000002  1.190001
      ESP Fit Center  385 is at   4.282821  0.414906  1.190001
      ESP Fit Center  386 is at   4.157974  0.812825  1.190001
      ESP Fit Center  387 is at   3.955581  1.177466  1.190001
      ESP Fit Center  388 is at   3.683930  1.493902  1.190001
      ESP Fit Center  389 is at   3.354142  1.749177  1.190001
      ESP Fit Center  390 is at   2.979718  1.932841  1.190001
      ESP Fit Center  391 is at   2.575987  2.037374  1.190001
      ESP Fit Center  392 is at   2.159478  2.058497  1.190001
      ESP Fit Center  393 is at   1.747243  1.995345  1.190001
      ESP Fit Center  394 is at   1.747243 -1.995341  1.190001
      ESP Fit Center  395 is at   2.159478 -2.058493  1.190001
      ESP Fit Center  396 is at   2.575987 -2.037370  1.190001
      ESP Fit Center  397 is at   2.979718 -1.932837  1.190001
      ESP Fit Center  398 is at   3.354142 -1.749173  1.190001
      ESP Fit Center  399 is at   3.683930 -1.493898  1.190001
      ESP Fit Center  400 is at   3.955581 -1.177462  1.190001
      ESP Fit Center  401 is at   4.157974 -0.812821  1.190001
      ESP Fit Center  402 is at   4.282821 -0.414903  1.190001
      ESP Fit Center  403 is at   4.500341  0.000002  0.814009
      ESP Fit Center  404 is at   4.459925  0.423256  0.814009
      ESP Fit Center  405 is at   4.340138  0.831213  0.814009
      ESP Fit Center  406 is at   4.145310  1.209128  0.814009
      ESP Fit Center  407 is at   3.882481  1.543342  0.814009
      ESP Fit Center  408 is at   3.561152  1.821775  0.814009
      ESP Fit Center  409 is at   3.192935  2.034365  0.814009
      ESP Fit Center  410 is at   2.791140  2.173428  0.814009
      ESP Fit Center  411 is at   2.370288  2.233937  0.814009
      ESP Fit Center  412 is at   1.945590  2.213706  0.814009
      ESP Fit Center  413 is at   1.945590 -2.213703  0.814009
      ESP Fit Center  414 is at   2.370288 -2.233933  0.814009
      ESP Fit Center  415 is at   2.791140 -2.173424  0.814009
      ESP Fit Center  416 is at   3.192935 -2.034361  0.814009
      ESP Fit Center  417 is at   3.561152 -1.821772  0.814009
      ESP Fit Center  418 is at   3.882481 -1.543338  0.814009
      ESP Fit Center  419 is at   4.145310 -1.209124  0.814009
      ESP Fit Center  420 is at   4.340138 -0.831210  0.814009
      ESP Fit Center  421 is at   4.459925 -0.423253  0.814009
      ESP Fit Center  422 is at   4.607715  0.000002  0.413284
      ESP Fit Center  423 is at   4.570049  0.418511  0.413284
      ESP Fit Center  424 is at   4.458260  0.823569  0.413284
      ESP Fit Center  425 is at   4.275941  1.202157  0.413284
      ESP Fit Center  426 is at   4.028953  1.542107  0.413284
      ESP Fit Center  427 is at   3.725234  1.832492  0.413284
      ESP Fit Center  428 is at   3.374546  2.063979  0.413284
      ESP Fit Center  429 is at   2.988160  2.229128  0.413284
      ESP Fit Center  430 is at   2.578494  2.322632  0.413284
      ESP Fit Center  431 is at   2.158717  2.341484  0.413284
      ESP Fit Center  432 is at   2.158717 -2.341481  0.413284
      ESP Fit Center  433 is at   2.578494 -2.322628  0.413284
      ESP Fit Center  434 is at   2.988160 -2.229125  0.413284
      ESP Fit Center  435 is at   3.374546 -2.063975  0.413284
      ESP Fit Center  436 is at   3.725234 -1.832488  0.413284
      ESP Fit Center  437 is at   4.028953 -1.542103  0.413284
      ESP Fit Center  438 is at   4.275941 -1.202153  0.413284
      ESP Fit Center  439 is at   4.458260 -0.823565  0.413284
      ESP Fit Center  440 is at   4.570049 -0.418507  0.413284
      ESP Fit Center  441 is at   4.643873  0.000002  0.000001
      ESP Fit Center  442 is at   4.607715  0.413284  0.000001
      ESP Fit Center  443 is at   4.500341  0.814010  0.000001
      ESP Fit Center  444 is at   4.325013  1.190002  0.000001
      ESP Fit Center  445 is at   4.087058  1.529836  0.000001
      ESP Fit Center  446 is at   3.793707  1.823188  0.000001
      ESP Fit Center  447 is at   3.453873  2.061142  0.000001
      ESP Fit Center  448 is at   3.077881  2.236470  0.000001
      ESP Fit Center  449 is at   2.677155  2.343844  0.000001
      ESP Fit Center  450 is at   2.263873  2.380002  0.000001
      ESP Fit Center  451 is at   2.263873 -2.379998  0.000001
      ESP Fit Center  452 is at   2.677155 -2.343841  0.000001
      ESP Fit Center  453 is at   3.077881 -2.236467  0.000001
      ESP Fit Center  454 is at   3.453873 -2.061139  0.000001
      ESP Fit Center  455 is at   3.793707 -1.823184  0.000001
      ESP Fit Center  456 is at   4.087058 -1.529833  0.000001
      ESP Fit Center  457 is at   4.325013 -1.189998  0.000001
      ESP Fit Center  458 is at   4.500341 -0.814006  0.000001
      ESP Fit Center  459 is at   4.607715 -0.413281  0.000001
      ESP Fit Center  460 is at   4.607715  0.000002 -0.413281
      ESP Fit Center  461 is at   4.570049  0.418511 -0.413281
      ESP Fit Center  462 is at   4.458260  0.823569 -0.413281
      ESP Fit Center  463 is at   4.275941  1.202157 -0.413281
      ESP Fit Center  464 is at   4.028953  1.542107 -0.413281
      ESP Fit Center  465 is at   3.725234  1.832492 -0.413281
      ESP Fit Center  466 is at   3.374546  2.063979 -0.413281
      ESP Fit Center  467 is at   2.988160  2.229128 -0.413281
      ESP Fit Center  468 is at   2.578494  2.322632 -0.413281
      ESP Fit Center  469 is at   2.158717  2.341484 -0.413281
      ESP Fit Center  470 is at   2.158717 -2.341481 -0.413281
      ESP Fit Center  471 is at   2.578494 -2.322628 -0.413281
      ESP Fit Center  472 is at   2.988160 -2.229125 -0.413281
      ESP Fit Center  473 is at   3.374546 -2.063975 -0.413281
      ESP Fit Center  474 is at   3.725234 -1.832488 -0.413281
      ESP Fit Center  475 is at   4.028953 -1.542103 -0.413281
      ESP Fit Center  476 is at   4.275941 -1.202153 -0.413281
      ESP Fit Center  477 is at   4.458260 -0.823565 -0.413281
      ESP Fit Center  478 is at   4.570049 -0.418507 -0.413281
      ESP Fit Center  479 is at   4.500341  0.000002 -0.814007
      ESP Fit Center  480 is at   4.459925  0.423256 -0.814007
      ESP Fit Center  481 is at   4.340138  0.831213 -0.814007
      ESP Fit Center  482 is at   4.145310  1.209128 -0.814007
      ESP Fit Center  483 is at   3.882481  1.543342 -0.814007
      ESP Fit Center  484 is at   3.561152  1.821775 -0.814007
      ESP Fit Center  485 is at   3.192935  2.034365 -0.814007
      ESP Fit Center  486 is at   2.791140  2.173428 -0.814007
      ESP Fit Center  487 is at   2.370288  2.233937 -0.814007
      ESP Fit Center  488 is at   1.945590  2.213706 -0.814007
      ESP Fit Center  489 is at   1.945590 -2.213703 -0.814007
      ESP Fit Center  490 is at   2.370288 -2.233933 -0.814007
      ESP Fit Center  491 is at   2.791140 -2.173424 -0.814007
      ESP Fit Center  492 is at   3.192935 -2.034361 -0.814007
      ESP Fit Center  493 is at   3.561152 -1.821772 -0.814007
      ESP Fit Center  494 is at   3.882481 -1.543338 -0.814007
      ESP Fit Center  495 is at   4.145310 -1.209124 -0.814007
      ESP Fit Center  496 is at   4.340138 -0.831210 -0.814007
      ESP Fit Center  497 is at   4.459925 -0.423253 -0.814007
      ESP Fit Center  498 is at   4.325013  0.000002 -1.189999
      ESP Fit Center  499 is at   4.282821  0.414906 -1.189999
      ESP Fit Center  500 is at   4.157974  0.812825 -1.189999
      ESP Fit Center  501 is at   3.955581  1.177466 -1.189999
      ESP Fit Center  502 is at   3.683930  1.493902 -1.189999
      ESP Fit Center  503 is at   3.354142  1.749177 -1.189999
      ESP Fit Center  504 is at   2.979718  1.932841 -1.189999
      ESP Fit Center  505 is at   2.575987  2.037374 -1.189999
      ESP Fit Center  506 is at   2.159478  2.058497 -1.189999
      ESP Fit Center  507 is at   1.747243  1.995345 -1.189999
      ESP Fit Center  508 is at   1.747243 -1.995341 -1.189999
      ESP Fit Center  509 is at   2.159478 -2.058493 -1.189999
      ESP Fit Center  510 is at   2.575987 -2.037370 -1.189999
      ESP Fit Center  511 is at   2.979718 -1.932837 -1.189999
      ESP Fit Center  512 is at   3.354142 -1.749173 -1.189999
      ESP Fit Center  513 is at   3.683930 -1.493898 -1.189999
      ESP Fit Center  514 is at   3.955581 -1.177462 -1.189999
      ESP Fit Center  515 is at   4.157974 -0.812821 -1.189999
      ESP Fit Center  516 is at   4.282821 -0.414903 -1.189999
      ESP Fit Center  517 is at   4.087058  0.000002 -1.529833
      ESP Fit Center  518 is at   4.037914  0.420457 -1.529833
      ESP Fit Center  519 is at   3.893131  0.818246 -1.529833
      ESP Fit Center  520 is at   3.660514  1.171923 -1.529833
      ESP Fit Center  521 is at   3.352604  1.462421 -1.529833
      ESP Fit Center  522 is at   2.986000  1.674080 -1.529833
      ESP Fit Center  523 is at   2.580466  1.795489 -1.529833
      ESP Fit Center  524 is at   2.157864  1.820103 -1.529833
      ESP Fit Center  525 is at   1.740977  1.746595 -1.529833
      ESP Fit Center  526 is at   1.352280  1.578927 -1.529833
      ESP Fit Center  527 is at   1.352280 -1.578923 -1.529833
      ESP Fit Center  528 is at   1.740977 -1.746591 -1.529833
      ESP Fit Center  529 is at   2.157864 -1.820099 -1.529833
      ESP Fit Center  530 is at   2.580466 -1.795486 -1.529833
      ESP Fit Center  531 is at   2.986000 -1.674077 -1.529833
      ESP Fit Center  532 is at   3.352604 -1.462418 -1.529833
      ESP Fit Center  533 is at   3.660514 -1.171919 -1.529833
      ESP Fit Center  534 is at   3.893131 -0.818242 -1.529833
      ESP Fit Center  535 is at   4.037914 -0.420454 -1.529833
      ESP Fit Center  536 is at   3.793707  0.000002 -1.823184
      ESP Fit Center  537 is at   3.736977  0.412746 -1.823184
      ESP Fit Center  538 is at   3.570993  0.794879 -1.823184
      ESP Fit Center  539 is at   3.308066  1.118060 -1.823184
      ESP Fit Center  540 is at   2.967696  1.358319 -1.823184
      ESP Fit Center  541 is at   2.575127  1.497838 -1.823184
      ESP Fit Center  542 is at   2.159473  1.526270 -1.823184
      ESP Fit Center  543 is at   1.751562  1.441505 -1.823184
      ESP Fit Center  544 is at   1.381647  1.249831 -1.823184
      ESP Fit Center  545 is at   1.077163  0.965462 -1.823184
      ESP Fit Center  546 is at   1.077163 -0.965458 -1.823184
      ESP Fit Center  547 is at   1.381647 -1.249827 -1.823184
      ESP Fit Center  548 is at   1.751562 -1.441501 -1.823184
      ESP Fit Center  549 is at   2.159473 -1.526266 -1.823184
      ESP Fit Center  550 is at   2.575127 -1.497835 -1.823184
      ESP Fit Center  551 is at   2.967696 -1.358316 -1.823184
      ESP Fit Center  552 is at   3.308066 -1.118056 -1.823184
      ESP Fit Center  553 is at   3.570993 -0.794876 -1.823184
      ESP Fit Center  554 is at   3.736977 -0.412743 -1.823184
      ESP Fit Center  555 is at   3.453873  0.000002 -2.061139
      ESP Fit Center  556 is at   3.382107  0.407006 -2.061139
      ESP Fit Center  557 is at   3.175466  0.764919 -2.061139
      ESP Fit Center  558 is at   2.858873  1.030572 -2.061139
      ESP Fit Center  559 is at   2.470514  1.171923 -2.061139
      ESP Fit Center  560 is at   2.057231  1.171923 -2.061139
      ESP Fit Center  561 is at   1.668873  1.030572 -2.061139
      ESP Fit Center  562 is at   1.352280  0.764919 -2.061139
      ESP Fit Center  563 is at   1.145638  0.407006 -2.061139
      ESP Fit Center  564 is at   1.073873  0.000002 -2.061139
      ESP Fit Center  565 is at   1.145638 -0.407002 -2.061139
      ESP Fit Center  566 is at   1.352280 -0.764915 -2.061139
      ESP Fit Center  567 is at   1.668873 -1.030568 -2.061139
      ESP Fit Center  568 is at   2.057231 -1.171919 -2.061139
      ESP Fit Center  569 is at   2.470514 -1.171919 -2.061139
      ESP Fit Center  570 is at   2.858873 -1.030568 -2.061139
      ESP Fit Center  571 is at   3.175466 -0.764915 -2.061139
      ESP Fit Center  572 is at   3.382107 -0.407002 -2.061139
      ESP Fit Center  573 is at   3.077881  0.000002 -2.236467
      ESP Fit Center  574 is at   2.968824  0.407006 -2.236467
      ESP Fit Center  575 is at   2.670877  0.704953 -2.236467
      ESP Fit Center  576 is at   2.263873  0.814010 -2.236467
      ESP Fit Center  577 is at   1.856869  0.704953 -2.236467
      ESP Fit Center  578 is at   1.558921  0.407006 -2.236467
      ESP Fit Center  579 is at   1.449865  0.000002 -2.236467
      ESP Fit Center  580 is at   1.558921 -0.407002 -2.236467
      ESP Fit Center  581 is at   1.856869 -0.704950 -2.236467
      ESP Fit Center  582 is at   2.263873 -0.814006 -2.236467
      ESP Fit Center  583 is at   2.670877 -0.704950 -2.236467
      ESP Fit Center  584 is at   2.968824 -0.407002 -2.236467
      ESP Fit Center  585 is at   2.677155  0.000002 -2.343841
      ESP Fit Center  586 is at   2.470514  0.357915 -2.343841
      ESP Fit Center  587 is at   2.057231  0.357915 -2.343841
      ESP Fit Center  588 is at   1.850590  0.000002 -2.343841
      ESP Fit Center  589 is at   2.057231 -0.357911 -2.343841
      ESP Fit Center  590 is at   2.470514 -0.357911 -2.343841
      ESP Fit Center  591 is at   2.263873  0.000002 -2.379999
      ESP Fit Center  592 is at  -3.571343  0.376549  1.622761
      ESP Fit Center  593 is at  -3.788751 -0.000013  1.622761
      ESP Fit Center  594 is at  -3.571343 -0.376575  1.622761
      ESP Fit Center  595 is at  -3.773935  0.727448  1.454928
      ESP Fit Center  596 is at  -4.081396  0.419987  1.454928
      ESP Fit Center  597 is at  -4.193935 -0.000013  1.454928
      ESP Fit Center  598 is at  -4.081396 -0.420013  1.454928
      ESP Fit Center  599 is at  -3.773935 -0.727474  1.454928
      ESP Fit Center  600 is at  -3.679030  1.142578  1.187945
      ESP Fit Center  601 is at  -4.069828  0.947983  1.187945
      ESP Fit Center  602 is at  -4.363941  0.625356  1.187945
      ESP Fit Center  603 is at  -4.521647  0.218270  1.187945
      ESP Fit Center  604 is at  -4.521647 -0.218296  1.187945
      ESP Fit Center  605 is at  -4.363941 -0.625383  1.187945
      ESP Fit Center  606 is at  -4.069828 -0.948009  1.187945
      ESP Fit Center  607 is at  -3.679030 -1.142604  1.187945
      ESP Fit Center  608 is at  -3.677685  1.418432  0.840006
      ESP Fit Center  609 is at  -4.081396  1.259987  0.840006
      ESP Fit Center  610 is at  -4.420468  0.989586  0.840006
      ESP Fit Center  611 is at  -4.664775  0.631254  0.840006
      ESP Fit Center  612 is at  -4.792607  0.216832  0.840006
      ESP Fit Center  613 is at  -4.792607 -0.216858  0.840006
      ESP Fit Center  614 is at  -4.664775 -0.631280  0.840006
      ESP Fit Center  615 is at  -4.420468 -0.989612  0.840006
      ESP Fit Center  616 is at  -4.081396 -1.260013  0.840006
      ESP Fit Center  617 is at  -3.677685 -1.418458  0.840006
      ESP Fit Center  618 is at  -3.773935  1.567448  0.434822
      ESP Fit Center  619 is at  -4.165312  1.405334  0.434822
      ESP Fit Center  620 is at  -4.501396  1.147448  0.434822
      ESP Fit Center  621 is at  -4.759282  0.811365  0.434822
      ESP Fit Center  622 is at  -4.921396  0.419987  0.434822
      ESP Fit Center  623 is at  -4.976690 -0.000013  0.434822
      ESP Fit Center  624 is at  -4.921396 -0.420013  0.434822
      ESP Fit Center  625 is at  -4.759282 -0.811391  0.434822
      ESP Fit Center  626 is at  -4.501396 -1.147474  0.434822
      ESP Fit Center  627 is at  -4.165312 -1.405360  0.434822
      ESP Fit Center  628 is at  -3.773935 -1.567474  0.434822
      ESP Fit Center  629 is at  -4.069244  1.520096  0.000006
      ESP Fit Center  630 is at  -4.424807  1.294449  0.000006
      ESP Fit Center  631 is at  -4.713083  0.987466  0.000006
      ESP Fit Center  632 is at  -4.915959  0.618436  0.000006
      ESP Fit Center  633 is at  -5.020687  0.210547  0.000006
      ESP Fit Center  634 is at  -5.020687 -0.210573  0.000006
      ESP Fit Center  635 is at  -4.915959 -0.618462  0.000006
      ESP Fit Center  636 is at  -4.713083 -0.987492  0.000006
      ESP Fit Center  637 is at  -4.424807 -1.294475  0.000006
      ESP Fit Center  638 is at  -4.069244 -1.520123  0.000006
      ESP Fit Center  639 is at  -3.773935  1.567448 -0.434810
      ESP Fit Center  640 is at  -4.165312  1.405334 -0.434810
      ESP Fit Center  641 is at  -4.501396  1.147448 -0.434810
      ESP Fit Center  642 is at  -4.759282  0.811365 -0.434810
      ESP Fit Center  643 is at  -4.921396  0.419987 -0.434810
      ESP Fit Center  644 is at  -4.976690 -0.000013 -0.434810
      ESP Fit Center  645 is at  -4.921396 -0.420013 -0.434810
      ESP Fit Center  646 is at  -4.759282 -0.811391 -0.434810
      ESP Fit Center  647 is at  -4.501396 -1.147474 -0.434810
      ESP Fit Center  648 is at  -4.165312 -1.405360 -0.434810
      ESP Fit Center  649 is at  -3.773935 -1.567474 -0.434810
      ESP Fit Center  650 is at  -3.677685  1.418432 -0.839994
      ESP Fit Center  651 is at  -4.081396  1.259987 -0.839994
      ESP Fit Center  652 is at  -4.420468  0.989586 -0.839994
      ESP Fit Center  653 is at  -4.664775  0.631254 -0.839994
      ESP Fit Center  654 is at  -4.792607  0.216832 -0.839994
      ESP Fit Center  655 is at  -4.792607 -0.216858 -0.839994
      ESP Fit Center  656 is at  -4.664775 -0.631280 -0.839994
      ESP Fit Center  657 is at  -4.420468 -0.989612 -0.839994
      ESP Fit Center  658 is at  -4.081396 -1.260013 -0.839994
      ESP Fit Center  659 is at  -3.677685 -1.418458 -0.839994
      ESP Fit Center  660 is at  -3.679030  1.142578 -1.187934
      ESP Fit Center  661 is at  -4.069828  0.947983 -1.187934
      ESP Fit Center  662 is at  -4.363941  0.625356 -1.187934
      ESP Fit Center  663 is at  -4.521647  0.218270 -1.187934
      ESP Fit Center  664 is at  -4.521647 -0.218296 -1.187934
      ESP Fit Center  665 is at  -4.363941 -0.625383 -1.187934
      ESP Fit Center  666 is at  -4.069828 -0.948009 -1.187934
      ESP Fit Center  667 is at  -3.679030 -1.142604 -1.187934
      ESP Fit Center  668 is at  -3.773935  0.727448 -1.454917
      ESP Fit Center  669 is at  -4.081396  0.419987 -1.454917
      ESP Fit Center  670 is at  -4.193935 -0.000013 -1.454917
      ESP Fit Center  671 is at  -4.081396 -0.420013 -1.454917
      ESP Fit Center  672 is at  -3.773935 -0.727474 -1.454917
      ESP Fit Center  673 is at  -3.571343  0.376549 -1.622750
      ESP Fit Center  674 is at  -3.788751 -0.000013 -1.622750
      ESP Fit Center  675 is at  -3.571343 -0.376575 -1.622750
      ESP Fit Center  676 is at  -2.542847 -2.147521  1.622755
      ESP Fit Center  677 is at  -2.325439 -2.524083  1.622755
      ESP Fit Center  678 is at  -1.890623 -2.524083  1.622755
      ESP Fit Center  679 is at  -2.948031 -2.147521  1.454922
      ESP Fit Center  680 is at  -2.835493 -2.567521  1.454922
      ESP Fit Center  681 is at  -2.528031 -2.874982  1.454922
      ESP Fit Center  682 is at  -2.108031 -2.987521  1.454922
      ESP Fit Center  683 is at  -1.688031 -2.874982  1.454922
      ESP Fit Center  684 is at  -3.275744 -1.929238  1.187939
      ESP Fit Center  685 is at  -3.275744 -2.365804  1.187939
      ESP Fit Center  686 is at  -3.118038 -2.772890  1.187939
      ESP Fit Center  687 is at  -2.823925 -3.095517  1.187939
      ESP Fit Center  688 is at  -2.433126 -3.290112  1.187939
      ESP Fit Center  689 is at  -1.998422 -3.330393  1.187939
      ESP Fit Center  690 is at  -1.578521 -3.210921  1.187939
      ESP Fit Center  691 is at  -1.230134 -2.947831  1.187939
      ESP Fit Center  692 is at  -3.546704 -1.930676  0.840000
      ESP Fit Center  693 is at  -3.546704 -2.364366  0.840000
      ESP Fit Center  694 is at  -3.418871 -2.778788  0.840000
      ESP Fit Center  695 is at  -3.174565 -3.137120  0.840000
      ESP Fit Center  696 is at  -2.835493 -3.407521  0.840000
      ESP Fit Center  697 is at  -2.431782 -3.565966  0.840000
      ESP Fit Center  698 is at  -1.999305 -3.598375  0.840000
      ESP Fit Center  699 is at  -1.576488 -3.501870  0.840000
      ESP Fit Center  700 is at  -1.200902 -3.285025  0.840000
      ESP Fit Center  701 is at  -3.675493 -1.727521  0.434816
      ESP Fit Center  702 is at  -3.730787 -2.147521  0.434816
      ESP Fit Center  703 is at  -3.675493 -2.567521  0.434816
      ESP Fit Center  704 is at  -3.513379 -2.958899  0.434816
      ESP Fit Center  705 is at  -3.255493 -3.294982  0.434816
      ESP Fit Center  706 is at  -2.919409 -3.552868  0.434816
      ESP Fit Center  707 is at  -2.528031 -3.714982  0.434816
      ESP Fit Center  708 is at  -2.108031 -3.770276  0.434816
      ESP Fit Center  709 is at  -1.688031 -3.714982  0.434816
      ESP Fit Center  710 is at  -1.296654 -3.552868  0.434816
      ESP Fit Center  711 is at  -0.960570 -3.294982  0.434816
      ESP Fit Center  712 is at  -3.774784 -1.936961 -0.000000
      ESP Fit Center  713 is at  -3.774784 -2.358081 -0.000000
      ESP Fit Center  714 is at  -3.670056 -2.765970 -0.000000
      ESP Fit Center  715 is at  -3.467180 -3.135000 -0.000000
      ESP Fit Center  716 is at  -3.178904 -3.441983 -0.000000
      ESP Fit Center  717 is at  -2.823341 -3.667630 -0.000000
      ESP Fit Center  718 is at  -2.422832 -3.797764 -0.000000
      ESP Fit Center  719 is at  -2.002543 -3.824206 -0.000000
      ESP Fit Center  720 is at  -1.588883 -3.745296 -0.000000
      ESP Fit Center  721 is at  -1.207842 -3.565992 -0.000000
      ESP Fit Center  722 is at  -0.883364 -3.297560 -0.000000
      ESP Fit Center  723 is at  -3.675493 -1.727521 -0.434816
      ESP Fit Center  724 is at  -3.730787 -2.147521 -0.434816
      ESP Fit Center  725 is at  -3.675493 -2.567521 -0.434816
      ESP Fit Center  726 is at  -3.513379 -2.958899 -0.434816
      ESP Fit Center  727 is at  -3.255493 -3.294982 -0.434816
      ESP Fit Center  728 is at  -2.919409 -3.552868 -0.434816
      ESP Fit Center  729 is at  -2.528031 -3.714982 -0.434816
      ESP Fit Center  730 is at  -2.108031 -3.770276 -0.434816
      ESP Fit Center  731 is at  -1.688031 -3.714982 -0.434816
      ESP Fit Center  732 is at  -1.296654 -3.552868 -0.434816
      ESP Fit Center  733 is at  -0.960570 -3.294982 -0.434816
      ESP Fit Center  734 is at  -3.546704 -1.930676 -0.840000
      ESP Fit Center  735 is at  -3.546704 -2.364366 -0.840000
      ESP Fit Center  736 is at  -3.418871 -2.778788 -0.840000
      ESP Fit Center  737 is at  -3.174565 -3.137120 -0.840000
      ESP Fit Center  738 is at  -2.835493 -3.407521 -0.840000
      ESP Fit Center  739 is at  -2.431782 -3.565966 -0.840000
      ESP Fit Center  740 is at  -1.999305 -3.598375 -0.840000
      ESP Fit Center  741 is at  -1.576488 -3.501870 -0.840000
      ESP Fit Center  742 is at  -1.200902 -3.285025 -0.840000
      ESP Fit Center  743 is at  -3.275744 -1.929238 -1.187940
      ESP Fit Center  744 is at  -3.275744 -2.365804 -1.187940
      ESP Fit Center  745 is at  -3.118038 -2.772890 -1.187940
      ESP Fit Center  746 is at  -2.823925 -3.095517 -1.187940
      ESP Fit Center  747 is at  -2.433126 -3.290112 -1.187940
      ESP Fit Center  748 is at  -1.998422 -3.330393 -1.187940
      ESP Fit Center  749 is at  -1.578521 -3.210921 -1.187940
      ESP Fit Center  750 is at  -1.230134 -2.947831 -1.187940
      ESP Fit Center  751 is at  -2.948031 -2.147521 -1.454923
      ESP Fit Center  752 is at  -2.835493 -2.567521 -1.454923
      ESP Fit Center  753 is at  -2.528031 -2.874982 -1.454923
      ESP Fit Center  754 is at  -2.108031 -2.987521 -1.454923
      ESP Fit Center  755 is at  -1.688031 -2.874982 -1.454923
      ESP Fit Center  756 is at  -2.542847 -2.147521 -1.622756
      ESP Fit Center  757 is at  -2.325439 -2.524083 -1.622756
      ESP Fit Center  758 is at  -1.890623 -2.524083 -1.622756
      ESP Fit Center  759 is at   0.806540 -2.146353  1.622755
      ESP Fit Center  760 is at   0.154316 -2.522915  1.622755
      ESP Fit Center  761 is at   0.589132 -2.522915  1.622755
      ESP Fit Center  762 is at   1.211724 -2.146353  1.454922
      ESP Fit Center  763 is at  -0.048276 -2.873814  1.454922
      ESP Fit Center  764 is at   0.371724 -2.986353  1.454922
      ESP Fit Center  765 is at   0.791724 -2.873814  1.454922
      ESP Fit Center  766 is at   1.099186 -2.566353  1.454922
      ESP Fit Center  767 is at   1.559664 -2.146353  1.187939
      ESP Fit Center  768 is at  -0.344169 -3.094349  1.187939
      ESP Fit Center  769 is at   0.046629 -3.288944  1.187939
      ESP Fit Center  770 is at   0.481334 -3.329225  1.187939
      ESP Fit Center  771 is at   0.901235 -3.209753  1.187939
      ESP Fit Center  772 is at   1.249622 -2.946663  1.187939
      ESP Fit Center  773 is at   1.479445 -2.575486  1.187939
      ESP Fit Center  774 is at  -0.694809 -3.135952  0.839999
      ESP Fit Center  775 is at  -0.355737 -3.406353  0.839999
      ESP Fit Center  776 is at   0.047974 -3.564798  0.839999
      ESP Fit Center  777 is at   0.480451 -3.597207  0.839999
      ESP Fit Center  778 is at   0.903267 -3.500702  0.839999
      ESP Fit Center  779 is at   1.278854 -3.283857  0.839999
      ESP Fit Center  780 is at   1.573838 -2.965940  0.839999
      ESP Fit Center  781 is at   1.762009 -2.575199  0.839999
      ESP Fit Center  782 is at  -0.775737 -3.293814  0.434815
      ESP Fit Center  783 is at  -0.439653 -3.551700  0.434815
      ESP Fit Center  784 is at  -0.048276 -3.713814  0.434815
      ESP Fit Center  785 is at   0.371724 -3.769108  0.434815
      ESP Fit Center  786 is at   0.791724 -3.713814  0.434815
      ESP Fit Center  787 is at   1.183102 -3.551700  0.434815
      ESP Fit Center  788 is at   1.519186 -3.293814  0.434815
      ESP Fit Center  789 is at   1.777072 -2.957731  0.434815
      ESP Fit Center  790 is at   1.939186 -2.566353  0.434815
      ESP Fit Center  791 is at  -0.699148 -3.440815 -0.000001
      ESP Fit Center  792 is at  -0.343585 -3.666462 -0.000001
      ESP Fit Center  793 is at   0.056924 -3.796596 -0.000001
      ESP Fit Center  794 is at   0.477213 -3.823038 -0.000001
      ESP Fit Center  795 is at   0.890873 -3.744128 -0.000001
      ESP Fit Center  796 is at   1.271913 -3.564824 -0.000001
      ESP Fit Center  797 is at   1.596392 -3.296392 -0.000001
[...]
 4110 Fit      -0.005731
 4111 Fit      -0.007547
 4112 Fit      -0.008710
 4113 Fit      -0.009361
 4114 Fit      -0.009620
 4115 Fit      -0.009594
 4116 Fit      -0.009380
 4117 Fit      -0.009069
 4118 Fit      -0.008739
 4119 Fit      -0.008454
 4120 Fit      -0.008262
 4121 Fit      -0.008650
 4122 Fit      -0.008714
 4123 Fit      -0.008897
 4124 Fit      -0.009165
 4125 Fit      -0.009468
 4126 Fit      -0.009736
 4127 Fit      -0.009887
 4128 Fit      -0.009832
 4129 Fit      -0.009471
 4130 Fit      -0.008703
 4131 Fit      -0.007423
 4132 Fit      -0.005524
 4133 Fit      -0.002897
 4134 Fit      -0.002896
 4135 Fit      -0.005524
 4136 Fit      -0.007423
 4137 Fit      -0.008702
 4138 Fit      -0.009470
 4139 Fit      -0.009831
 4140 Fit      -0.009887
 4141 Fit      -0.009736
 4142 Fit      -0.009468
 4143 Fit      -0.009165
 4144 Fit      -0.008897
 4145 Fit      -0.008714
 4146 Fit      -0.009234
 4147 Fit      -0.009293
 4148 Fit      -0.009458
 4149 Fit      -0.009695
 4150 Fit      -0.009952
 4151 Fit      -0.010159
 4152 Fit      -0.010235
 4153 Fit      -0.010092
 4154 Fit      -0.009641
 4155 Fit      -0.008799
 4156 Fit      -0.007496
 4157 Fit      -0.005691
 4158 Fit      -0.003405
 4159 Fit      -0.003405
 4160 Fit      -0.005691
 4161 Fit      -0.007496
 4162 Fit      -0.008799
 4163 Fit      -0.009641
 4164 Fit      -0.010091
 4165 Fit      -0.010235
 4166 Fit      -0.010159
 4167 Fit      -0.009952
 4168 Fit      -0.009695
 4169 Fit      -0.009458
 4170 Fit      -0.009293
 4171 Fit      -0.009902
 4172 Fit      -0.009957
 4173 Fit      -0.010107
 4174 Fit      -0.010314
 4175 Fit      -0.010514
 4176 Fit      -0.010629
 4177 Fit      -0.010570
 4178 Fit      -0.010249
 4179 Fit      -0.009591
 4180 Fit      -0.008544
 4181 Fit      -0.007111
 4182 Fit      -0.005389
 4183 Fit      -0.005388
 4184 Fit      -0.007110
 4185 Fit      -0.008543
 4186 Fit      -0.009590
 4187 Fit      -0.010249
 4188 Fit      -0.010570
 4189 Fit      -0.010628
 4190 Fit      -0.010514
 4191 Fit      -0.010314
 4192 Fit      -0.010107
 4193 Fit      -0.009957
 4194 Fit      -0.010599
 4195 Fit      -0.010646
 4196 Fit      -0.010772
 4197 Fit      -0.010929
 4198 Fit      -0.011048
 4199 Fit      -0.011044
 4200 Fit      -0.010831
 4201 Fit      -0.010335
 4202 Fit      -0.009521
 4203 Fit      -0.008416
 4204 Fit      -0.007155
 4205 Fit      -0.006025
 4206 Fit      -0.006025
 4207 Fit      -0.007155
 4208 Fit      -0.008415
 4209 Fit      -0.009520
 4210 Fit      -0.010335
 4211 Fit      -0.010831
 4212 Fit      -0.011044
 4213 Fit      -0.011048
 4214 Fit      -0.010929
 4215 Fit      -0.010771
 4216 Fit      -0.010646
 4217 Fit      -0.011269
 4218 Fit      -0.011305
 4219 Fit      -0.011394
 4220 Fit      -0.011485
 4221 Fit      -0.011503
 4222 Fit      -0.011366
 4223 Fit      -0.011005
 4224 Fit      -0.010388
 4225 Fit      -0.009556
 4226 Fit      -0.008653
 4227 Fit      -0.007948
 4228 Fit      -0.007790
 4229 Fit      -0.007790
 4230 Fit      -0.007948
 4231 Fit      -0.008653
 4232 Fit      -0.009556
 4233 Fit      -0.010388
 4234 Fit      -0.011005
 4235 Fit      -0.011366
 4236 Fit      -0.011503
 4237 Fit      -0.011485
 4238 Fit      -0.011394
 4239 Fit      -0.011305
 4240 Fit      -0.011859
 4241 Fit      -0.011881
 4242 Fit      -0.011924
 4243 Fit      -0.011929
 4244 Fit      -0.011817
 4245 Fit      -0.011517
 4246 Fit      -0.011009
 4247 Fit      -0.010354
 4248 Fit      -0.009729
 4249 Fit      -0.009402
 4250 Fit      -0.009630
 4251 Fit      -0.009630
 4252 Fit      -0.009402
 4253 Fit      -0.009729
 4254 Fit      -0.010354
 4255 Fit      -0.011008
 4256 Fit      -0.011517
 4257 Fit      -0.011817
 4258 Fit      -0.011929
 4259 Fit      -0.011924
 4260 Fit      -0.011881
 4261 Fit      -0.012320
 4262 Fit      -0.012324
 4263 Fit      -0.012308
 4264 Fit      -0.012208
 4265 Fit      -0.011960
 4266 Fit      -0.011547
 4267 Fit      -0.011051
 4268 Fit      -0.010661
 4269 Fit      -0.010605
 4270 Fit      -0.010984
 4271 Fit      -0.011643
 4272 Fit      -0.012232
 4273 Fit      -0.012460
 4274 Fit      -0.012232
 4275 Fit      -0.011643
 4276 Fit      -0.010984
 4277 Fit      -0.010605
 4278 Fit      -0.010661
 4279 Fit      -0.011051
 4280 Fit      -0.011547
 4281 Fit      -0.011960
 4282 Fit      -0.012208
 4283 Fit      -0.012308
 4284 Fit      -0.012324
 4285 Fit      -0.012621
 4286 Fit      -0.012598
 4287 Fit      -0.012498
 4288 Fit      -0.012263
 4289 Fit      -0.011899
 4290 Fit      -0.011542
 4291 Fit      -0.011409
 4292 Fit      -0.011597
 4293 Fit      -0.011925
 4294 Fit      -0.012082
 4295 Fit      -0.011925
 4296 Fit      -0.011597
 4297 Fit      -0.011409
 4298 Fit      -0.011542
 4299 Fit      -0.011899
 4300 Fit      -0.012263
 4301 Fit      -0.012498
 4302 Fit      -0.012598
 4303 Fit      -0.012745
 4304 Fit      -0.012681
 4305 Fit      -0.012470
 4306 Fit      -0.012164
 4307 Fit      -0.011971
 4308 Fit      -0.012012
 4309 Fit      -0.012084
 4310 Fit      -0.012012
 4311 Fit      -0.011971
 4312 Fit      -0.012164
 4313 Fit      -0.012470
 4314 Fit      -0.012681
 4315 Fit      -0.012701
 4316 Fit      -0.012563
 4317 Fit      -0.012332
 4318 Fit      -0.012281
 4319 Fit      -0.012332
 4320 Fit      -0.012563
 4321 Fit      -0.012523
 4322 Fit       0.007627
 4323 Fit       0.007801
 4324 Fit       0.007627
 4325 Fit       0.009004
 4326 Fit       0.009336
 4327 Fit       0.009500
 4328 Fit       0.009500
 4329 Fit       0.009336
 4330 Fit       0.009004
 4331 Fit       0.010521
 4332 Fit       0.010677
 4333 Fit       0.010809
 4334 Fit       0.010885
 4335 Fit       0.010885
 4336 Fit       0.010809
 4337 Fit       0.010677
 4338 Fit       0.010521
 4339 Fit       0.012061
 4340 Fit       0.011907
 4341 Fit       0.011885
 4342 Fit       0.011915
 4343 Fit       0.011943
 4344 Fit       0.011943
 4345 Fit       0.011915
 4346 Fit       0.011885
 4347 Fit       0.011907
 4348 Fit       0.012061
 4349 Fit       0.013859
 4350 Fit       0.013146
 4351 Fit       0.012824
 4352 Fit       0.012708
 4353 Fit       0.012686
 4354 Fit       0.012690
 4355 Fit       0.012690
 4356 Fit       0.012686
 4357 Fit       0.012708
 4358 Fit       0.012824
 4359 Fit       0.013145
 4360 Fit       0.013858
 4361 Fit       0.014488
 4362 Fit       0.013702
 4363 Fit       0.013335
 4364 Fit       0.013188
 4365 Fit       0.013143
 4366 Fit       0.013136
 4367 Fit       0.013136
 4368 Fit       0.013143
 4369 Fit       0.013188
 4370 Fit       0.013335
 4371 Fit       0.013701
 4372 Fit       0.014488
 4373 Fit       0.015267
 4374 Fit       0.014174
 4375 Fit       0.013639
 4376 Fit       0.013401
 4377 Fit       0.013311
 4378 Fit       0.013287
 4379 Fit       0.013284
 4380 Fit       0.013287
 4381 Fit       0.013311
 4382 Fit       0.013401
 4383 Fit       0.013639
 4384 Fit       0.014174
 4385 Fit       0.015266
 4386 Fit       0.014488
 4387 Fit       0.013702
 4388 Fit       0.013335
 4389 Fit       0.013188
 4390 Fit       0.013143
 4391 Fit       0.013136
 4392 Fit       0.013136
 4393 Fit       0.013143
 4394 Fit       0.013188
 4395 Fit       0.013335
 4396 Fit       0.013701
 4397 Fit       0.014488
 4398 Fit       0.013859
 4399 Fit       0.013146
 4400 Fit       0.012824
 4401 Fit       0.012708
 4402 Fit       0.012686
 4403 Fit       0.012690
 4404 Fit       0.012690
 4405 Fit       0.012686
 4406 Fit       0.012708
 4407 Fit       0.012824
 4408 Fit       0.013145
 4409 Fit       0.013858
 4410 Fit       0.012061
 4411 Fit       0.011907
 4412 Fit       0.011885
 4413 Fit       0.011915
 4414 Fit       0.011943
 4415 Fit       0.011943
 4416 Fit       0.011915
 4417 Fit       0.011885
 4418 Fit       0.011907
 4419 Fit       0.012061
 4420 Fit       0.010521
 4421 Fit       0.010677
 4422 Fit       0.010809
 4423 Fit       0.010884
 4424 Fit       0.010884
 4425 Fit       0.010809
 4426 Fit       0.010677
 4427 Fit       0.010521
 4428 Fit       0.009004
 4429 Fit       0.009336
 4430 Fit       0.009500
 4431 Fit       0.009500
 4432 Fit       0.009336
 4433 Fit       0.009004
 4434 Fit       0.007627
 4435 Fit       0.007801
 4436 Fit       0.007627
 4437 Fit       0.007217
 4438 Fit       0.007190
 4439 Fit       0.006777
 4440 Fit       0.008850
 4441 Fit       0.009008
 4442 Fit       0.008968
 4443 Fit       0.008731
 4444 Fit       0.008298
 4445 Fit       0.007663
 4446 Fit       0.010379
 4447 Fit       0.010448
 4448 Fit       0.010471
 4449 Fit       0.010427
 4450 Fit       0.010288
 4451 Fit       0.010042
 4452 Fit       0.009698
 4453 Fit       0.009280
 4454 Fit       0.008818
 4455 Fit       0.012080
 4456 Fit       0.011819
 4457 Fit       0.011676
 4458 Fit       0.011572
 4459 Fit       0.011452
 4460 Fit       0.011283
 4461 Fit       0.011058
 4462 Fit       0.010798
 4463 Fit       0.010548
 4464 Fit       0.010385
 4465 Fit       0.010414
 4466 Fit       0.013435
 4467 Fit       0.012876
 4468 Fit       0.012577
 4469 Fit       0.012398
 4470 Fit       0.012253
 4471 Fit       0.012094
 4472 Fit       0.011904
 4473 Fit       0.011694
 4474 Fit       0.011509
 4475 Fit       0.011438
 4476 Fit       0.011629
 4477 Fit       0.014327
 4478 Fit       0.013564
 4479 Fit       0.013154
 4480 Fit       0.012918
 4481 Fit       0.012752
 4482 Fit       0.012597
 4483 Fit       0.012425
 4484 Fit       0.012240
 4485 Fit       0.012074
 4486 Fit       0.011998
 4487 Fit       0.012141
 4488 Fit       0.012735
 4489 Fit       0.015303
 4490 Fit       0.014162
 4491 Fit       0.013552
 4492 Fit       0.013215
 4493 Fit       0.013008
 4494 Fit       0.012848
 4495 Fit       0.012691
 4496 Fit       0.012518
 4497 Fit       0.012343
 4498 Fit       0.012208
 4499 Fit       0.012194
 4500 Fit       0.012453
 4501 Fit       0.013261
 4502 Fit       0.014327
 4503 Fit       0.013564
 4504 Fit       0.013154
 4505 Fit       0.012918
 4506 Fit       0.012752
 4507 Fit       0.012597
 4508 Fit       0.012425
 4509 Fit       0.012240
 4510 Fit       0.012074
 4511 Fit       0.011998
 4512 Fit       0.012141
 4513 Fit       0.012735
 4514 Fit       0.013435
 4515 Fit       0.012876
 4516 Fit       0.012577
 4517 Fit       0.012398
 4518 Fit       0.012253
 4519 Fit       0.012094
 4520 Fit       0.011904
 4521 Fit       0.011694
 4522 Fit       0.011509
 4523 Fit       0.011438
 4524 Fit       0.011629
 4525 Fit       0.012080
 4526 Fit       0.011819
 4527 Fit       0.011676
 4528 Fit       0.011572
 4529 Fit       0.011452
 4530 Fit       0.011283
 4531 Fit       0.011058
 4532 Fit       0.010798
 4533 Fit       0.010548
 4534 Fit       0.010385
 4535 Fit       0.010414
 4536 Fit       0.010379
 4537 Fit       0.010448
 4538 Fit       0.010471
 4539 Fit       0.010427
 4540 Fit       0.010288
 4541 Fit       0.010042
 4542 Fit       0.009698
 4543 Fit       0.009280
 4544 Fit       0.008818
 4545 Fit       0.008850
 4546 Fit       0.009008
 4547 Fit       0.008968
 4548 Fit       0.008731
 4549 Fit       0.008298
 4550 Fit       0.007663
 4551 Fit       0.007217
 4552 Fit       0.007190
 4553 Fit       0.006777
 4554 Fit       0.001903
 4555 Fit       0.000490
 4556 Fit      -0.001650
 4557 Fit       0.005092
 4558 Fit       0.004573
 4559 Fit       0.003636
 4560 Fit       0.002234
 4561 Fit       0.000274
 4562 Fit      -0.002346
 4563 Fit       0.007062
 4564 Fit       0.006286
 4565 Fit       0.005285
 4566 Fit       0.003964
 4567 Fit       0.002208
 4568 Fit      -0.000117
 4569 Fit       0.009513
 4570 Fit       0.008553
 4571 Fit       0.007622
 4572 Fit       0.006596
 4573 Fit       0.005361
 4574 Fit       0.003801
 4575 Fit       0.001789
 4576 Fit      -0.000831
 4577 Fit       0.011620
 4578 Fit       0.010224
 4579 Fit       0.009109
 4580 Fit       0.008061
 4581 Fit       0.006923
 4582 Fit       0.005565
 4583 Fit       0.003864
 4584 Fit       0.001679
 4585 Fit      -0.001179
 4586 Fit       0.011605
 4587 Fit       0.010271
 4588 Fit       0.009163
 4589 Fit       0.008082
 4590 Fit       0.006883
 4591 Fit       0.005446
 4592 Fit       0.003648
 4593 Fit       0.001346
 4594 Fit       0.013174
 4595 Fit       0.011440
 4596 Fit       0.010174
 4597 Fit       0.009087
 4598 Fit       0.008000
 4599 Fit       0.006780
 4600 Fit       0.005311
 4601 Fit       0.003477
 4602 Fit       0.001131
 4603 Fit       0.011605
 4604 Fit       0.010271
 4605 Fit       0.009163
 4606 Fit       0.008082
 4607 Fit       0.006883
 4608 Fit       0.005446
 4609 Fit       0.003648
 4610 Fit       0.001346
 4611 Fit       0.011620
 4612 Fit       0.010224
 4613 Fit       0.009109
 4614 Fit       0.008061
 4615 Fit       0.006923
 4616 Fit       0.005565
 4617 Fit       0.003864
 4618 Fit       0.001679
 4619 Fit      -0.001179
 4620 Fit       0.009513
 4621 Fit       0.008553
 4622 Fit       0.007622
 4623 Fit       0.006596
 4624 Fit       0.005361
 4625 Fit       0.003801
 4626 Fit       0.001789
 4627 Fit      -0.000831
 4628 Fit       0.007062
 4629 Fit       0.006286
 4630 Fit       0.005285
 4631 Fit       0.003964
 4632 Fit       0.002208
 4633 Fit      -0.000117
 4634 Fit       0.005092
 4635 Fit       0.004573
 4636 Fit       0.003636
 4637 Fit       0.002234
 4638 Fit       0.000274
 4639 Fit      -0.002347
 4640 Fit       0.001903
 4641 Fit       0.000490
 4642 Fit      -0.001650
 4643 Fit      -0.001650
 4644 Fit       0.000490
 4645 Fit       0.001903
 4646 Fit      -0.002347
 4647 Fit       0.000274
 4648 Fit       0.002234
 4649 Fit       0.003636
 4650 Fit       0.004573
 4651 Fit       0.005092
 4652 Fit      -0.000117
 4653 Fit       0.002208
 4654 Fit       0.003964
 4655 Fit       0.005285
 4656 Fit       0.006286
 4657 Fit       0.007062
 4658 Fit      -0.000831
 4659 Fit       0.001789
 4660 Fit       0.003801
 4661 Fit       0.005361
 4662 Fit       0.006596
 4663 Fit       0.007622
 4664 Fit       0.008553
 4665 Fit       0.009513
 4666 Fit      -0.001180
 4667 Fit       0.001679
 4668 Fit       0.003864
 4669 Fit       0.005565
 4670 Fit       0.006923
 4671 Fit       0.008061
 4672 Fit       0.009109
 4673 Fit       0.010224
 4674 Fit       0.011620
 4675 Fit       0.001346
 4676 Fit       0.003648
 4677 Fit       0.005446
 4678 Fit       0.006883
 4679 Fit       0.008082
 4680 Fit       0.009163
 4681 Fit       0.010271
 4682 Fit       0.011605
 4683 Fit       0.001131
 4684 Fit       0.003477
 4685 Fit       0.005311
 4686 Fit       0.006780
 4687 Fit       0.008000
 4688 Fit       0.009087
 4689 Fit       0.010174
 4690 Fit       0.011440
 4691 Fit       0.013174
 4692 Fit       0.001346
 4693 Fit       0.003648
 4694 Fit       0.005446
 4695 Fit       0.006883
 4696 Fit       0.008082
 4697 Fit       0.009163
 4698 Fit       0.010271
 4699 Fit       0.011605
 4700 Fit      -0.001180
 4701 Fit       0.001679
 4702 Fit       0.003864
 4703 Fit       0.005565
 4704 Fit       0.006923
 4705 Fit       0.008061
 4706 Fit       0.009109
 4707 Fit       0.010224
 4708 Fit       0.011620
 4709 Fit      -0.000831
 4710 Fit       0.001789
 4711 Fit       0.003801
 4712 Fit       0.005361
 4713 Fit       0.006596
 4714 Fit       0.007622
 4715 Fit       0.008553
 4716 Fit       0.009513
 4717 Fit      -0.000117
 4718 Fit       0.002208
 4719 Fit       0.003964
 4720 Fit       0.005285
 4721 Fit       0.006286
 4722 Fit       0.007062
 4723 Fit      -0.002347
 4724 Fit       0.000274
 4725 Fit       0.002234
 4726 Fit       0.003636
 4727 Fit       0.004573
 4728 Fit       0.005092
 4729 Fit      -0.001650
 4730 Fit       0.000490
 4731 Fit       0.001903
 4732 Fit       0.006777
 4733 Fit       0.007190
 4734 Fit       0.007217
 4735 Fit       0.007663
 4736 Fit       0.008298
 4737 Fit       0.008731
 4738 Fit       0.008968
 4739 Fit       0.009008
 4740 Fit       0.008851
 4741 Fit       0.008818
 4742 Fit       0.009280
 4743 Fit       0.009698
 4744 Fit       0.010043
 4745 Fit       0.010288
 4746 Fit       0.010427
 4747 Fit       0.010471
 4748 Fit       0.010448
 4749 Fit       0.010379
 4750 Fit       0.010414
 4751 Fit       0.010385
 4752 Fit       0.010548
 4753 Fit       0.010798
 4754 Fit       0.011058
 4755 Fit       0.011283
 4756 Fit       0.011452
 4757 Fit       0.011572
 4758 Fit       0.011676
 4759 Fit       0.011819
 4760 Fit       0.012080
 4761 Fit       0.011629
 4762 Fit       0.011438
 4763 Fit       0.011509
 4764 Fit       0.011694
 4765 Fit       0.011904
 4766 Fit       0.012094
 4767 Fit       0.012254
 4768 Fit       0.012398
 4769 Fit       0.012577
 4770 Fit       0.012876
 4771 Fit       0.013435
 4772 Fit       0.012735
 4773 Fit       0.012141
 4774 Fit       0.011998
 4775 Fit       0.012074
 4776 Fit       0.012240
 4777 Fit       0.012425
 4778 Fit       0.012597
 4779 Fit       0.012752
 4780 Fit       0.012918
 4781 Fit       0.013154
 4782 Fit       0.013564
 4783 Fit       0.014327
 4784 Fit       0.013261
 4785 Fit       0.012453
 4786 Fit       0.012194
 4787 Fit       0.012208
 4788 Fit       0.012343
 4789 Fit       0.012519
 4790 Fit       0.012691
 4791 Fit       0.012849
 4792 Fit       0.013008
 4793 Fit       0.013215
 4794 Fit       0.013552
 4795 Fit       0.014163
 4796 Fit       0.015303
 4797 Fit       0.012735
 4798 Fit       0.012141
 4799 Fit       0.011998
 4800 Fit       0.012074
 4801 Fit       0.012240
 4802 Fit       0.012425
 4803 Fit       0.012597
 4804 Fit       0.012752
 4805 Fit       0.012918
 4806 Fit       0.013154
 4807 Fit       0.013564
 4808 Fit       0.014327
 4809 Fit       0.011629
 4810 Fit       0.011438
 4811 Fit       0.011509
 4812 Fit       0.011694
 4813 Fit       0.011904
 4814 Fit       0.012094
 4815 Fit       0.012254
 4816 Fit       0.012398
 4817 Fit       0.012577
 4818 Fit       0.012876
 4819 Fit       0.013435
 4820 Fit       0.010414
 4821 Fit       0.010385
 4822 Fit       0.010548
 4823 Fit       0.010798
 4824 Fit       0.011058
 4825 Fit       0.011283
 4826 Fit       0.011452
 4827 Fit       0.011572
 4828 Fit       0.011676
 4829 Fit       0.011819
 4830 Fit       0.012080
 4831 Fit       0.008818
 4832 Fit       0.009280
 4833 Fit       0.009698
 4834 Fit       0.010042
 4835 Fit       0.010288
 4836 Fit       0.010427
 4837 Fit       0.010471
 4838 Fit       0.010448
 4839 Fit       0.010379
 4840 Fit       0.007663
 4841 Fit       0.008298
 4842 Fit       0.008731
 4843 Fit       0.008968
 4844 Fit       0.009008
 4845 Fit       0.008851
 4846 Fit       0.006777
 4847 Fit       0.007190
 4848 Fit       0.007217
 -----------------------------------------------------------------
 Leave Link  602 at Tue Oct 25 15:39:18 2022, MaxMem=   196608000 cpu:         0.8

 Test job not archived.
 1\1\ WCSS.PL-BEM-CUDAA\SP\RB3LYP\6-311G(d,p)\C6H5Cl1\SHIYU\25-Oct-2022
 \0\\# B3LYP/6-311G(d,p) em=GD3BJ scrf(solvent=water) pop=MK IOp(6/33=2
 ,6/42=6) geom=allcheck guess=read\\remark line goes here\\0,1\C,0,6.39
 36564041,-3.3128792785,-4.8001287126\C,0,5.8363057665,-2.8067841916,-3
 .6274165423\C,0,6.6385988095,-2.1745528051,-2.6794689965\C,0,8.0015265
 569,-2.0600589825,-2.9279217684\C,0,8.5795312237,-2.5571615186,-4.0903
 347165\C,0,7.762696543,-3.1865244919,-5.0277097314\Cl,0,9.0281352351,-
 1.2601312802,-1.7325205893\H,0,5.7644867638,-3.8031113879,-5.532732293
 3\H,0,4.7728781454,-2.9009935162,-3.4430048321\H,0,6.2144123563,-1.778
 6781817,-1.766228901\H,0,9.6433820104,-2.4546247778,-4.2587544296\H,0,
 8.2036901852,-3.5772995878,-5.936878487\\Version=ES64L-G09RevE.01\Stat
 e=1-A\HF=-691.9565161\RMSD=5.325e-09\Dipole=-0.5837232,-0.454827,-0.67
 96909\Quadrupole=2.3202337,-2.8550708,0.5348371,0.1201647,-1.9053798,1
 .9380025\PG=C01 [X(C6H5Cl1)]\\@


 IF OTHER PEOPLE ARE GOING TO TALK, CONVERSATION IS SIMPLY IMPOSSIBLE.

                                               -- WHISTLER'S PRINCIPLE
 Job cpu time:       0 days  0 hours  0 minutes 32.2 seconds.
 File lengths (MBytes):  RWF=     35 Int=      0 D2E=      0 Chk=      7 Scr=      1
 Normal termination of Gaussian 09 at Tue Oct 25 15:39:18 2022.
